 vasp.5.4.4.18Apr17-6-g9f103f2a35 (build Dec 21 2018 14:18:36) complex          
  
 executed on             LinuxIFC date 2022.03.31  16:53:15
 running on   12 total cores
 distrk:  each k-point on   12 cores,    1 groups
 distr:  one band on NCORES_PER_BAND=  12 cores,    1 groups


--------------------------------------------------------------------------------------------------------


 INCAR:
 POTCAR:  PAW_PBE Al 04Jan2001                    
 POTCAR:   PAW_PBE Cu 22Jun2005                   
 POTCAR:   PAW_PBE O 08Apr2002                    
 POTCAR:   PAW_PBE Si 05Jan2001                   

 ----------------------------------------------------------------------------- 
|                                                                             |
|           W    W    AA    RRRRR   N    N  II  N    N   GGGG   !!!           |
|           W    W   A  A   R    R  NN   N  II  NN   N  G    G  !!!           |
|           W    W  A    A  R    R  N N  N  II  N N  N  G       !!!           |
|           W WW W  AAAAAA  RRRRR   N  N N  II  N  N N  G  GGG   !            |
|           WW  WW  A    A  R   R   N   NN  II  N   NN  G    G                |
|           W    W  A    A  R    R  N    N  II  N    N   GGGG   !!!           |
|                                                                             |
|      For optimal performance we recommend to set                            |
|        NCORE= 4 - approx SQRT( number of cores)                             |
|      NCORE specifies how many cores store one orbital (NPAR=cpu/NCORE).     |
|      This setting can  greatly improve the performance of VASP for DFT.     |
|      The default,   NCORE=1            might be grossly inefficient         |
|      on modern multi-core architectures or massively parallel machines.     |
|      Do your own testing !!!!                                               |
|      Unfortunately you need to use the default for GW and RPA calculations. |
|      (for HF NCORE is supported but not extensively tested yet)             |
|                                                                             |
 ----------------------------------------------------------------------------- 

 POTCAR:  PAW_PBE Al 04Jan2001                    
   VRHFIN =Al: s2p1                                                             
   LEXCH  = PE                                                                  
   EATOM  =    53.5387 eV,    3.9350 Ry                                         
                                                                                
   TITEL  = PAW_PBE Al 04Jan2001                                                
   LULTRA =        F    use ultrasoft PP ?                                      
   IUNSCR =        1    unscreen: 0-lin 1-nonlin 2-no                           
   RPACOR =    1.500    partial core radius                                     
   POMASS =   26.982; ZVAL   =    3.000    mass and valenz                      
   RCORE  =    1.900    outmost cutoff radius                                   
   RWIGS  =    2.650; RWIGS  =    1.402    wigner-seitz radius (au A)           
   ENMAX  =  240.300; ENMIN  =  180.225 eV                                      
   ICORE  =        2    local potential                                         
   LCOR   =        T    correct aug charges                                     
   LPAW   =        T    paw PP                                                  
   EAUG   =  291.052                                                            
   DEXC   =    -.041                                                            
   RMAX   =    2.974    core radius for proj-oper                               
   RAUG   =    1.300    factor for augmentation sphere                          
   RDEP   =    1.966    radius for radial grids                                 
   QCUT   =   -4.203; QGAM   =    8.405    optimization parameters              
                                                                                
   Description                                                                  
     l     E      TYP  RCUT    TYP  RCUT                                        
     0   .000     23  1.900                                                     
     0   .000     23  1.900                                                     
     1   .000     23  1.900                                                     
     1  1.000     23  1.900                                                     
     2   .000      7  1.900                                                     
  local pseudopotential read in
  partial core-charges read in
  atomic valenz-charges read in
  non local Contribution for L=           0  read in
    real space projection operators read in
  non local Contribution for L=           0  read in
    real space projection operators read in
  non local Contribution for L=           1  read in
    real space projection operators read in
  non local Contribution for L=           1  read in
    real space projection operators read in
    PAW grid and wavefunctions read in
 
   number of l-projection  operators is LMAX  =           4
   number of lm-projection operators is LMMAX =           8
 
 POTCAR:   PAW_PBE Cu 22Jun2005                   
   VRHFIN =Cu: d10 p1                                                           
   LEXCH  = PE                                                                  
   EATOM  =  1390.9808 eV,  102.2342 Ry                                         
                                                                                
   TITEL  = PAW_PBE Cu 22Jun2005                                                
   LULTRA =        F    use ultrasoft PP ?                                      
   IUNSCR =        1    unscreen: 0-lin 1-nonlin 2-no                           
   RPACOR =    2.000    partial core radius                                     
   POMASS =   63.546; ZVAL   =   11.000    mass and valenz                      
   RCORE  =    2.300    outmost cutoff radius                                   
   RWIGS  =    2.200; RWIGS  =    1.164    wigner-seitz radius (au A)           
   ENMAX  =  295.446; ENMIN  =  221.585 eV                                      
   ICORE  =        3    local potential                                         
   LCOR   =        T    correct aug charges                                     
   LPAW   =        T    paw PP                                                  
   EAUG   =  586.980                                                            
   DEXC   =    0.000                                                            
   RMAX   =    2.344    core radius for proj-oper                               
   RAUG   =    1.300    factor for augmentation sphere                          
   RDEP   =    2.302    radius for radial grids                                 
   RDEPT  =    1.771    core radius for aug-charge                              
                                                                                
   Atomic configuration                                                         
    9 entries                                                                   
     n  l   j            E        occ.                                          
     1  0  0.50     -8850.2468   2.0000                                         
     2  0  0.50     -1062.3498   2.0000                                         
     2  1  1.50      -916.8226   6.0000                                         
     3  0  0.50      -114.6929   2.0000                                         
     3  1  1.50       -72.1325   6.0000                                         
     3  2  2.50        -5.0394  10.0000                                         
     4  0  0.50        -4.6097   1.0000                                         
     4  1  0.50        -4.0817   0.0000                                         
     4  3  2.50        -1.3606   0.0000                                         
   Description                                                                  
     l       E           TYP  RCUT    TYP  RCUT                                 
     2     -5.0393973     23  2.200                                             
     2     10.8846608     23  2.200                                             
     0     -4.6097109     23  2.200                                             
     0      8.2520465     23  2.200                                             
     1     -2.7211652     23  2.200                                             
     1     21.7055443     23  2.200                                             
     3      2.7211652     23  2.300                                             
  local pseudopotential read in
  partial core-charges read in
  partial kinetic energy density read in
  atomic valenz-charges read in
  non local Contribution for L=           2  read in
    real space projection operators read in
  non local Contribution for L=           2  read in
    real space projection operators read in
  non local Contribution for L=           0  read in
    real space projection operators read in
  non local Contribution for L=           0  read in
    real space projection operators read in
  non local Contribution for L=           1  read in
    real space projection operators read in
  non local Contribution for L=           1  read in
    real space projection operators read in
    PAW grid and wavefunctions read in
 
   number of l-projection  operators is LMAX  =           6
   number of lm-projection operators is LMMAX =          18
 
 POTCAR:   PAW_PBE O 08Apr2002                    
   VRHFIN =O: s2p4                                                              
   LEXCH  = PE                                                                  
   EATOM  =   432.3788 eV,   31.7789 Ry                                         
                                                                                
   TITEL  = PAW_PBE O 08Apr2002                                                 
   LULTRA =        F    use ultrasoft PP ?                                      
   IUNSCR =        0    unscreen: 0-lin 1-nonlin 2-no                           
   RPACOR =     .000    partial core radius                                     
   POMASS =   16.000; ZVAL   =    6.000    mass and valenz                      
   RCORE  =    1.520    outmost cutoff radius                                   
   RWIGS  =    1.550; RWIGS  =     .820    wigner-seitz radius (au A)           
   ENMAX  =  400.000; ENMIN  =  300.000 eV                                      
   ICORE  =        2    local potential                                         
   LCOR   =        T    correct aug charges                                     
   LPAW   =        T    paw PP                                                  
   EAUG   =  605.392                                                            
   DEXC   =     .000                                                            
   RMAX   =    2.264    core radius for proj-oper                               
   RAUG   =    1.300    factor for augmentation sphere                          
   RDEP   =    1.550    radius for radial grids                                 
   QCUT   =   -5.520; QGAM   =   11.041    optimization parameters              
                                                                                
   Description                                                                  
     l     E      TYP  RCUT    TYP  RCUT                                        
     0   .000     23  1.200                                                     
     0  -.700     23  1.200                                                     
     1   .000     23  1.520                                                     
     1   .600     23  1.520                                                     
     2   .000      7  1.500                                                     
  local pseudopotential read in
  atomic valenz-charges read in
  non local Contribution for L=           0  read in
    real space projection operators read in
  non local Contribution for L=           0  read in
    real space projection operators read in
  non local Contribution for L=           1  read in
    real space projection operators read in
  non local Contribution for L=           1  read in
    real space projection operators read in
    PAW grid and wavefunctions read in
 
   number of l-projection  operators is LMAX  =           4
   number of lm-projection operators is LMMAX =           8
 
 POTCAR:   PAW_PBE Si 05Jan2001                   
   VRHFIN =Si: s2p2                                                             
   LEXCH  = PE                                                                  
   EATOM  =   103.0669 eV,    7.5752 Ry                                         
                                                                                
   TITEL  = PAW_PBE Si 05Jan2001                                                
   LULTRA =        F    use ultrasoft PP ?                                      
   IUNSCR =        1    unscreen: 0-lin 1-nonlin 2-no                           
   RPACOR =    1.500    partial core radius                                     
   POMASS =   28.085; ZVAL   =    4.000    mass and valenz                      
   RCORE  =    1.900    outmost cutoff radius                                   
   RWIGS  =    2.480; RWIGS  =    1.312    wigner-seitz radius (au A)           
   ENMAX  =  245.345; ENMIN  =  184.009 eV                                      
   ICORE  =        2    local potential                                         
   LCOR   =        T    correct aug charges                                     
   LPAW   =        T    paw PP                                                  
   EAUG   =  322.069                                                            
   DEXC   =    -.007                                                            
   RMAX   =    2.944    core radius for proj-oper                               
   RAUG   =    1.300    factor for augmentation sphere                          
   RDEP   =    1.993    radius for radial grids                                 
   QCUT   =   -4.246; QGAM   =    8.493    optimization parameters              
                                                                                
   Description                                                                  
     l     E      TYP  RCUT    TYP  RCUT                                        
     0   .000     23  1.900                                                     
     0   .000     23  1.900                                                     
     1   .000     23  1.900                                                     
     1   .000     23  1.900                                                     
     2   .000      7  1.900                                                     
  local pseudopotential read in
  partial core-charges read in
  atomic valenz-charges read in
  non local Contribution for L=           0  read in
    real space projection operators read in
  non local Contribution for L=           0  read in
    real space projection operators read in
  non local Contribution for L=           1  read in
    real space projection operators read in
  non local Contribution for L=           1  read in
    real space projection operators read in
    PAW grid and wavefunctions read in
 
   number of l-projection  operators is LMAX  =           4
   number of lm-projection operators is LMMAX =           8
 
 Optimization of the real space projectors (new method)

 maximal supplied QI-value         = 19.84
 optimisation between [QCUT,QGAM] = [ 10.12, 20.44] = [ 28.68,116.96] Ry 
 Optimized for a Real-space Cutoff    1.26 Angstroem

   l    n(q)    QCUT    max X(q) W(low)/X(q) W(high)/X(q)  e(spline) 
   0      8    10.119    13.410    0.28E-04    0.17E-04    0.51E-08
   0      8    10.119   140.052    0.10E-03    0.16E-03    0.42E-07
   1      7    10.119     9.624    0.38E-04    0.42E-05    0.15E-07
   1      7    10.119    53.353    0.23E-03    0.17E-03    0.13E-06
 Optimization of the real space projectors (new method)

 maximal supplied QI-value         = 16.25
 optimisation between [QCUT,QGAM] = [ 10.24, 20.48] = [ 29.35,117.42] Ry 
 Optimized for a Real-space Cutoff    1.55 Angstroem

   l    n(q)    QCUT    max X(q) W(low)/X(q) W(high)/X(q)  e(spline) 
   2      9    10.239     4.610    0.85E-04    0.29E-03    0.14E-06
   2      9    10.239     8.522    0.15E-03    0.50E-03    0.27E-06
   0     10    10.239    51.609    0.45E-04    0.99E-04    0.10E-06
   0     10    10.239    27.747    0.40E-04    0.93E-04    0.97E-07
   1      9    10.239    20.408    0.15E-03    0.78E-05    0.15E-06
   1      9    10.239    13.425    0.13E-03    0.71E-05    0.14E-06
 Optimization of the real space projectors (new method)

 maximal supplied QI-value         = 24.76
 optimisation between [QCUT,QGAM] = [ 10.15, 20.30] = [ 28.85,115.39] Ry 
 Optimized for a Real-space Cutoff    1.51 Angstroem

   l    n(q)    QCUT    max X(q) W(low)/X(q) W(high)/X(q)  e(spline) 
   0      9    10.150     4.192    0.32E-04    0.13E-04    0.13E-06
   0      9    10.150     8.473    0.18E-03    0.20E-03    0.43E-06
   1      9    10.150     2.474    0.32E-04    0.33E-04    0.64E-07
   1      9    10.150     3.912    0.13E-03    0.16E-03    0.33E-06
 Optimization of the real space projectors (new method)

 maximal supplied QI-value         = 19.84
 optimisation between [QCUT,QGAM] = [ 10.12, 20.44] = [ 28.68,116.96] Ry 
 Optimized for a Real-space Cutoff    1.38 Angstroem

   l    n(q)    QCUT    max X(q) W(low)/X(q) W(high)/X(q)  e(spline) 
   0      8    10.119     8.708    0.16E-04    0.67E-05    0.60E-08
   0      8    10.119   106.241    0.56E-04    0.11E-03    0.54E-07
   1      8    10.119     5.901    0.16E-04    0.16E-05    0.22E-07
   1      8    10.119    73.241    0.22E-03    0.17E-03    0.18E-06
PAW_PBE Al 04Jan2001                    :
 energy of atom  1       EATOM=  -53.5387
 kinetic energy error for atom=    0.0005 (will be added to EATOM!!)
 PAW_PBE Cu 22Jun2005                   :
 energy of atom  2       EATOM=-1390.9808
 kinetic energy error for atom=    0.0232 (will be added to EATOM!!)
 PAW_PBE O 08Apr2002                    :
 energy of atom  3       EATOM= -432.3788
 kinetic energy error for atom=    0.1156 (will be added to EATOM!!)
 PAW_PBE Si 05Jan2001                   :
 energy of atom  4       EATOM= -103.0669
 kinetic energy error for atom=    0.0012 (will be added to EATOM!!)
 
 
 POSCAR: Al Cu O Si                              
  positions in direct lattice
  No initial velocities read in
 exchange correlation table for  LEXCH =        8
   RHO(1)=    0.500       N(1)  =     2000
   RHO(2)=  100.500       N(2)  =     4000
 


--------------------------------------------------------------------------------------------------------


 ion  position               nearest neighbor table
   1  0.651  0.743  0.593-  11 1.61  10 1.61   7 1.61   5 1.61   3 3.04   2 3.10  13 3.15  13 3.15
                            14 3.22
   2  0.651  0.058  0.907-  12 1.61   8 1.61   9 1.61   5 1.61   4 2.80   1 3.10  14 3.15  14 3.15
                            13 3.22
   3  0.225  0.565  0.953-   7 2.04  13 2.53   4 2.59   1 3.04
   4  0.482  0.340  0.987-   3 2.59   2 2.80
   5  0.602  0.852  0.750-   2 1.61   1 1.61
   6  0.398  0.148  0.250-  13 1.61  14 1.61
   7  0.500  0.810  0.310-   1 1.61  13 1.61   3 2.04
   8  0.000  0.190  0.190-  14 1.61   2 1.61
   9  0.500  0.190  0.690-  14 1.61   2 1.61
  10  0.000  0.810  0.810-   1 1.61  13 1.61
  11  0.500  0.500  0.500-   1 1.61  14 1.61
  12  0.500  0.000  0.000-   2 1.61  13 1.61
  13  0.349  0.942  0.093-  12 1.61  10 1.61   7 1.61   6 1.61   3 2.53  14 3.10   1 3.15   1 3.15
                             2 3.22
  14  0.349  0.257  0.407-  11 1.61   8 1.61   9 1.61   6 1.61  13 3.10   2 3.15   2 3.15   1 3.22

 

IMPORTANT INFORMATION: All symmetrisations will be switched off!
NOSYMM: (Re-)initialisation of all symmetry stuff for point group C_1.

 
 
 KPOINTS: Automatic                               

Automatic generation of k-mesh.
Space group operators:
 irot       det(A)        alpha          n_x          n_y          n_z        tau_x        tau_y        tau_z
    1     1.000000     0.000001     1.000000     0.000000     0.000000     0.000000     0.000000     0.000000
 
 Subroutine IBZKPT returns following result:
 ===========================================
 
 Found      1 irreducible k-points:
 
 Following reciprocal coordinates:
            Coordinates               Weight
  0.000000  0.000000  0.000000      1.000000
 
 Following cartesian coordinates:
            Coordinates               Weight
  0.000000  0.000000  0.000000      1.000000
 


--------------------------------------------------------------------------------------------------------




 Dimension of arrays:
   k-points           NKPTS =      1   k-points in BZ     NKDIM =      1   number of bands    NBANDS=     50
   number of dos      NEDOS =    301   number of ions     NIONS =     14
   non local maximal  LDIM  =      6   non local SUM 2l+1 LMDIM =     18
   total plane-waves  NPLWV = 110592
   max r-space proj   IRMAX =   7689   max aug-charges    IRDMAX=  19120
   dimension x,y,z NGX =    48 NGY =   48 NGZ =   48
   dimension x,y,z NGXF=    96 NGYF=   96 NGZF=   96
   support grid    NGXF=    96 NGYF=   96 NGZF=   96
   ions per type =               2   2   8   2
   NGX,Y,Z   is equivalent  to a cutoff of  11.23, 11.23, 11.23 a.u.
   NGXF,Y,Z  is equivalent  to a cutoff of  22.46, 22.46, 22.46 a.u.

 SYSTEM =  ZEOLITE_so_energy                       
 POSCAR =  Al Cu O Si                              

 Startparameter for this run:
   NWRITE =      2    write-flag & timer
   PREC   = accura    normal or accurate (medium, high low for compatibility)
   ISTART =      0    job   : 0-new  1-cont  2-samecut
   ICHARG =      2    charge: 1-file 2-atom 10-const
   ISPIN  =      1    spin polarized calculation?
   LNONCOLLINEAR =      F non collinear calculations
   LSORBIT =      F    spin-orbit coupling
   INIWAV =      1    electr: 0-lowe 1-rand  2-diag
   LASPH  =      F    aspherical Exc in radial PAW
   METAGGA=      F    non-selfconsistent MetaGGA calc.

 Electronic Relaxation 1
   ENCUT  =  400.0 eV  29.40 Ry    5.42 a.u.  11.59 11.59 11.59*2*pi/ulx,y,z
   ENINI  =  400.0     initial cutoff
   ENAUG  =  605.4 eV  augmentation charge cutoff
   NELM   =    100;   NELMIN=  5; NELMDL=-12     # of ELM steps 
   EDIFF  = 0.1E-05   stopping-criterion for ELM
   LREAL  =      T    real-space projection
   NLSPLINE    = F    spline interpolate recip. space projectors
   LCOMPAT=      F    compatible to vasp.4.4
   GGA_COMPAT  = T    GGA compatible to vasp.4.4-vasp.4.6
   LMAXPAW     = -100 max onsite density
   LMAXMIX     =    2 max onsite mixed and CHGCAR
   VOSKOWN=      0    Vosko Wilk Nusair interpolation
   ROPT   =   -0.00025  -0.00025  -0.00025  -0.00025
 Ionic relaxation
   EDIFFG = -.5E-02   stopping-criterion for IOM
   NSW    =      0    number of steps for IOM
   NBLOCK =      1;   KBLOCK =      1    inner block; outer block 
   IBRION =     -1    ionic relax: 0-MD 1-quasi-New 2-CG
   NFREE  =      2    steps in history (QN), initial steepest desc. (CG)
   ISIF   =      2    stress and relaxation
   IWAVPR =     10    prediction:  0-non 1-charg 2-wave 3-comb
   ISYM   =      0    0-nonsym 1-usesym 2-fastsym
   LCORR  =      T    Harris-Foulkes like correction to forces

   POTIM  = 0.0150    time-step for ionic-motion
   TEIN   =    0.0    initial temperature
   TEBEG  =    0.0;   TEEND  =   0.0 temperature during run
   SMASS  =  -3.00    Nose mass-parameter (am)
   estimated Nose-frequenzy (Omega)   =  0.10E-29 period in steps =****** mass=  -0.115E-26a.u.
   SCALEE = 1.0000    scale energy and forces
   NPACO  =    256;   APACO  = 16.0  distance and # of slots for P.C.
   PSTRESS=    0.0 pullay stress

  Mass of Ions in am
   POMASS =  26.98 63.55 16.00 28.09
  Ionic Valenz
   ZVAL   =   3.00 11.00  6.00  4.00
  Atomic Wigner-Seitz radii
   RWIGS  =  -1.00 -1.00 -1.00 -1.00
  virtual crystal weights 
   VCA    =   1.00  1.00  1.00  1.00
   NELECT =      84.0000    total number of electrons
   NUPDOWN=      -1.0000    fix difference up-down

 DOS related values:
   EMIN   =  10.00;   EMAX   =-10.00  energy-range for DOS
   EFERMI =   0.00
   ISMEAR =     0;   SIGMA  =   0.20  broadening in eV -4-tet -1-fermi 0-gaus

 Electronic relaxation 2 (details)
   IALGO  =     48    algorithm
   LDIAG  =      T    sub-space diagonalisation (order eigenvalues)
   LSUBROT=      F    optimize rotation matrix (better conditioning)
   TURBO    =      0    0=normal 1=particle mesh
   IRESTART =      0    0=no restart 2=restart with 2 vectors
   NREBOOT  =      0    no. of reboots
   NMIN     =      0    reboot dimension
   EREF     =   0.00    reference energy to select bands
   IMIX   =      4    mixing-type and parameters
     AMIX     =   0.40;   BMIX     =  1.00
     AMIX_MAG =   1.60;   BMIX_MAG =  1.00
     AMIN     =   0.10
     WC   =   100.;   INIMIX=   1;  MIXPRE=   1;  MAXMIX= -45

 Intra band minimization:
   WEIMIN = 0.0000     energy-eigenvalue tresh-hold
   EBREAK =  0.50E-08  absolut break condition
   DEPER  =   0.30     relativ break condition  

   TIME   =   0.40     timestep for ELM

  volume/ion in A,a.u.               =      16.25       109.64
  Fermi-wavevector in a.u.,A,eV,Ry     =   1.174532  2.219544 18.769595  1.379526
  Thomas-Fermi vector in A             =   2.310928
 
 Write flags
   LWAVE        =      F    write WAVECAR
   LDOWNSAMPLE  =      F    k-point downsampling of WAVECAR
   LCHARG       =      F    write CHGCAR
   LVTOT        =      F    write LOCPOT, total local potential
   LVHAR        =      F    write LOCPOT, Hartree potential only
   LELF         =      F    write electronic localiz. function (ELF)
   LORBIT       =      0    0 simple, 1 ext, 2 COOP (PROOUT), +10 PAW based schemes


 Dipole corrections
   LMONO  =      F    monopole corrections only (constant potential shift)
   LDIPOL =      F    correct potential (dipole corrections)
   IDIPOL =      0    1-x, 2-y, 3-z, 4-all directions 
   EPSILON=  1.0000000 bulk dielectric constant

 Exchange correlation treatment:
   GGA     =    PE    GGA type
   LEXCH   =     8    internal setting for exchange type
   VOSKOWN=      0    Vosko Wilk Nusair interpolation
   LHFCALC =     F    Hartree Fock is set to
   LHFONE  =     F    Hartree Fock one center treatment
   AEXX    =    0.0000 exact exchange contribution

 Linear response parameters
   LEPSILON=     F    determine dielectric tensor
   LRPA    =     F    only Hartree local field effects (RPA)
   LNABLA  =     F    use nabla operator in PAW spheres
   LVEL    =     F    velocity operator in full k-point grid
   LINTERFAST=   F  fast interpolation
   KINTER  =     0    interpolate to denser k-point grid
   CSHIFT  =0.1000    complex shift for real part using Kramers Kronig
   OMEGAMAX=  -1.0    maximum frequency
   DEG_THRESHOLD= 0.2000000E-02 threshold for treating states as degnerate
   RTIME   =   -0.100 relaxation time in fs
  (WPLASMAI=    0.000 imaginary part of plasma frequency in eV, 0.658/RTIME)
   DFIELD  = 0.0000000 0.0000000 0.0000000 field for delta impulse in time
 
 Orbital magnetization related:
   ORBITALMAG=     F  switch on orbital magnetization
   LCHIMAG   =     F  perturbation theory with respect to B field
   DQ        =  0.001000  dq finite difference perturbation B field
   LLRAUG    =     F  two centre corrections for induced B field



--------------------------------------------------------------------------------------------------------


 Static calculation
 charge density and potential will be updated during run
 non-spin polarized calculation
 RMM-DIIS sequential band-by-band
 perform sub-space diagonalisation
    before iterative eigenvector-optimisation
 modified Broyden-mixing scheme, WC =      100.0
 initial mixing is a Kerker type mixing with AMIX =  0.4000 and BMIX =      1.0000
 Hartree-type preconditioning will be used
 using additional bands            8
 real space projection scheme for non local part
 use partial core corrections
 calculate Harris-corrections to forces 
   (improved forces if not selfconsistent)
 use gradient corrections 
 use of overlap-Matrix (Vanderbilt PP)
 Gauss-broadening in eV      SIGMA  =   0.20


--------------------------------------------------------------------------------------------------------


  energy-cutoff  :      400.00
  volume of cell :      227.46
      direct lattice vectors                 reciprocal lattice vectors
    -4.936500000  2.627000000  4.385000000     0.000000000  0.190331176  0.114025086
     4.936500000 -2.627000000  4.385000000     0.101286336  0.000000000  0.114025086
     4.936500000  2.627000000 -4.385000000     0.101286336  0.190331176  0.000000000

  length of vectors
     7.106221658  7.106221658  7.106221658     0.221873110  0.152514400  0.215603522


 
 k-points in units of 2pi/SCALE and weight: Automatic                               
   0.00000000  0.00000000  0.00000000       1.000
 
 k-points in reciprocal lattice and weights: Automatic                               
   0.00000000  0.00000000  0.00000000       1.000
 
 position of ions in fractional coordinates (direct lattice) 
   0.65070000  0.74350000  0.59280000
   0.65070000  0.05790000  0.90720000
   0.22523960  0.56456802  0.95263490
   0.48163061  0.34024143  0.98656296
   0.60230000  0.85230000  0.75000000
   0.39770000  0.14770000  0.25000000
   0.50000000  0.81000000  0.31000000
   0.00000000  0.19000000  0.19000000
   0.50000000  0.19000000  0.69000000
   0.00000000  0.81000000  0.81000000
   0.50000000  0.50000000  0.50000000
   0.50000000  0.00000000  0.00000000
   0.34930000  0.94210000  0.09280000
   0.34930000  0.25650000  0.40720000
 
 position of ions in cartesian coordinates  (Angst):
   3.38446440  1.31350000  3.51413900
   1.55203560  3.94050000 -0.87086100
   6.37777695  1.61115614 -0.71399765
   4.17220040  2.96313028 -0.72216969
   4.93650000  1.31350000  3.08967100
   0.00000000  1.31350000  1.29532900
   3.06063000 -0.00000000  4.38500000
   1.87587000  0.00000000  0.00000000
   1.87587000  2.62700000  0.00000000
   7.99713000  0.00000000  0.00000000
   2.46825000  1.31350000  2.19250000
  -2.46825000  1.31350000  2.19250000
   3.38446440 -1.31350000  5.25586100
   1.55203560  1.31350000  0.87086100
 


--------------------------------------------------------------------------------------------------------


 k-point  1 :   0.0000 0.0000 0.0000  plane waves:    4159

 maximum and minimum number of plane-waves per node :       348      345

 maximum number of plane-waves:      4159
 maximum index in each direction: 
   IXMAX=   11   IYMAX=   11   IZMAX=   11
   IXMIN=  -11   IYMIN=  -11   IZMIN=  -11


 real space projection operators:
  total allocation   :       6633.78 KBytes
  max/ min on nodes  :        576.31        535.61


 parallel 3D FFT for wavefunctions:
    minimum data exchange during FFTs selected (reduces bandwidth)
 parallel 3D FFT for charge:
    minimum data exchange during FFTs selected (reduces bandwidth)


 total amount of memory used by VASP MPI-rank0    41410. kBytes
=======================================================================

   base      :      30000. kBytes
   nonlr-proj:       2528. kBytes
   fftplans  :       2795. kBytes
   grid      :       5766. kBytes
   one-center:         31. kBytes
   wavefun   :        290. kBytes
 
     INWAV:  cpu time    0.0000: real time    0.0001
 Broyden mixing: mesh for mixing (old mesh)
   NGX = 23   NGY = 23   NGZ = 23
  (NGX  = 96   NGY  = 96   NGZ  = 96)
  gives a total of  12167 points

 initial charge density was supplied:
 charge density of overlapping atoms calculated
 number of electron      84.0000000 magnetization 
 keeping initial charge density in first step


--------------------------------------------------------------------------------------------------------


 Maximum index for non-local projection operator          649
 Maximum index for augmentation-charges         1508 (set IRDMAX)


--------------------------------------------------------------------------------------------------------


 First call to EWALD:  gamma=   0.290
 Maximum number of real-space cells 4x 3x 3
 Maximum number of reciprocal cells 3x 3x 3

    FEWALD:  cpu time    0.0020: real time    0.0019


--------------------------------------- Iteration      1(   1)  ---------------------------------------


    POTLOK:  cpu time    0.0590: real time    0.0604
    SETDIJ:  cpu time    0.0060: real time    0.0055
    EDDIAG:  cpu time    0.0200: real time    0.0209
  RMM-DIIS:  cpu time    0.0470: real time    0.0471
    ORTHCH:  cpu time    0.0010: real time    0.0013
       DOS:  cpu time    0.0000: real time    0.0003
    --------------------------------------------
      LOOP:  cpu time    0.1330: real time    0.1355

 eigenvalue-minimisations  :    50
 total energy-change (2. order) : 0.1009296E+04  (-0.2976977E+04)
 number of electron      84.0000000 magnetization 
 augmentation part       84.0000000 magnetization 

 Free energy of the ion-electron system (eV)
  ---------------------------------------------------
  alpha Z        PSCENC =       122.90225072
  Ewald energy   TEWEN  =     -3356.97750991
  -Hartree energ DENC   =     -2913.57701122
  -exchange      EXHF   =         0.00000000
  -V(xc)+E(xc)   XCENC  =       243.09499514
  PAW double counting   =      4561.46425865    -4688.84813308
  entropy T*S    EENTRO =        -0.23377298
  eigenvalues    EBANDS =       488.24244691
  atomic energy  EATOM  =      6553.22864978
  Solvation  Ediel_sol  =         0.00000000
  ---------------------------------------------------
  free energy    TOTEN  =      1009.29617399 eV

  energy without entropy =     1009.52994698  energy(sigma->0) =     1009.41306049


--------------------------------------------------------------------------------------------------------




--------------------------------------- Iteration      1(   2)  ---------------------------------------


    EDDIAG:  cpu time    0.0190: real time    0.0195
  RMM-DIIS:  cpu time    0.0460: real time    0.0461
    ORTHCH:  cpu time    0.0010: real time    0.0011
       DOS:  cpu time    0.0000: real time    0.0002
    --------------------------------------------
      LOOP:  cpu time    0.0660: real time    0.0670

 eigenvalue-minimisations  :    50
 total energy-change (2. order) :-0.6391666E+03  (-0.8179760E+03)
 number of electron      84.0000000 magnetization 
 augmentation part       84.0000000 magnetization 

 Free energy of the ion-electron system (eV)
  ---------------------------------------------------
  alpha Z        PSCENC =       122.90225072
  Ewald energy   TEWEN  =     -3356.97750991
  -Hartree energ DENC   =     -2913.57701122
  -exchange      EXHF   =         0.00000000
  -V(xc)+E(xc)   XCENC  =       243.09499514
  PAW double counting   =      4561.46425865    -4688.84813308
  entropy T*S    EENTRO =        -0.00124370
  eigenvalues    EBANDS =      -151.15665211
  atomic energy  EATOM  =      6553.22864978
  Solvation  Ediel_sol  =         0.00000000
  ---------------------------------------------------
  free energy    TOTEN  =       370.12960426 eV

  energy without entropy =      370.13084796  energy(sigma->0) =      370.13022611


--------------------------------------------------------------------------------------------------------




--------------------------------------- Iteration      1(   3)  ---------------------------------------


    EDDIAG:  cpu time    0.0190: real time    0.0191
  RMM-DIIS:  cpu time    0.0460: real time    0.0460
    ORTHCH:  cpu time    0.0010: real time    0.0011
       DOS:  cpu time    0.0010: real time    0.0002
    --------------------------------------------
      LOOP:  cpu time    0.0670: real time    0.0665

 eigenvalue-minimisations  :    50
 total energy-change (2. order) :-0.2061036E+03  (-0.2365760E+03)
 number of electron      84.0000000 magnetization 
 augmentation part       84.0000000 magnetization 

 Free energy of the ion-electron system (eV)
  ---------------------------------------------------
  alpha Z        PSCENC =       122.90225072
  Ewald energy   TEWEN  =     -3356.97750991
  -Hartree energ DENC   =     -2913.57701122
  -exchange      EXHF   =         0.00000000
  -V(xc)+E(xc)   XCENC  =       243.09499514
  PAW double counting   =      4561.46425865    -4688.84813308
  entropy T*S    EENTRO =        -0.20441302
  eigenvalues    EBANDS =      -357.05703831
  atomic energy  EATOM  =      6553.22864978
  Solvation  Ediel_sol  =         0.00000000
  ---------------------------------------------------
  free energy    TOTEN  =       164.02604874 eV

  energy without entropy =      164.23046176  energy(sigma->0) =      164.12825525


--------------------------------------------------------------------------------------------------------




--------------------------------------- Iteration      1(   4)  ---------------------------------------


    EDDIAG:  cpu time    0.0190: real time    0.0190
  RMM-DIIS:  cpu time    0.0460: real time    0.0461
    ORTHCH:  cpu time    0.0010: real time    0.0011
       DOS:  cpu time    0.0000: real time    0.0002
    --------------------------------------------
      LOOP:  cpu time    0.0660: real time    0.0665

 eigenvalue-minimisations  :    50
 total energy-change (2. order) :-0.1081298E+03  (-0.9117812E+02)
 number of electron      84.0000000 magnetization 
 augmentation part       84.0000000 magnetization 

 Free energy of the ion-electron system (eV)
  ---------------------------------------------------
  alpha Z        PSCENC =       122.90225072
  Ewald energy   TEWEN  =     -3356.97750991
  -Hartree energ DENC   =     -2913.57701122
  -exchange      EXHF   =         0.00000000
  -V(xc)+E(xc)   XCENC  =       243.09499514
  PAW double counting   =      4561.46425865    -4688.84813308
  entropy T*S    EENTRO =        -0.00222973
  eigenvalues    EBANDS =      -465.38905304
  atomic energy  EATOM  =      6553.22864978
  Solvation  Ediel_sol  =         0.00000000
  ---------------------------------------------------
  free energy    TOTEN  =        55.89621729 eV

  energy without entropy =       55.89844703  energy(sigma->0) =       55.89733216


--------------------------------------------------------------------------------------------------------




--------------------------------------- Iteration      1(   5)  ---------------------------------------


    EDDIAG:  cpu time    0.0190: real time    0.0190
  RMM-DIIS:  cpu time    0.0470: real time    0.0472
    ORTHCH:  cpu time    0.0010: real time    0.0011
       DOS:  cpu time    0.0010: real time    0.0002
    --------------------------------------------
      LOOP:  cpu time    0.0680: real time    0.0676

 eigenvalue-minimisations  :    50
 total energy-change (2. order) :-0.7084236E+02  (-0.5677946E+02)
 number of electron      84.0000000 magnetization 
 augmentation part       84.0000000 magnetization 

 Free energy of the ion-electron system (eV)
  ---------------------------------------------------
  alpha Z        PSCENC =       122.90225072
  Ewald energy   TEWEN  =     -3356.97750991
  -Hartree energ DENC   =     -2913.57701122
  -exchange      EXHF   =         0.00000000
  -V(xc)+E(xc)   XCENC  =       243.09499514
  PAW double counting   =      4561.46425865    -4688.84813308
  entropy T*S    EENTRO =        -0.00000068
  eigenvalues    EBANDS =      -536.23363875
  atomic energy  EATOM  =      6553.22864978
  Solvation  Ediel_sol  =         0.00000000
  ---------------------------------------------------
  free energy    TOTEN  =       -14.94613937 eV

  energy without entropy =      -14.94613869  energy(sigma->0) =      -14.94613903


--------------------------------------------------------------------------------------------------------




--------------------------------------- Iteration      1(   6)  ---------------------------------------


    EDDIAG:  cpu time    0.0190: real time    0.0190
  RMM-DIIS:  cpu time    0.0460: real time    0.0461
    ORTHCH:  cpu time    0.0010: real time    0.0011
       DOS:  cpu time    0.0000: real time    0.0003
    --------------------------------------------
      LOOP:  cpu time    0.0660: real time    0.0665

 eigenvalue-minimisations  :    50
 total energy-change (2. order) :-0.4041346E+02  (-0.2915422E+02)
 number of electron      84.0000000 magnetization 
 augmentation part       84.0000000 magnetization 

 Free energy of the ion-electron system (eV)
  ---------------------------------------------------
  alpha Z        PSCENC =       122.90225072
  Ewald energy   TEWEN  =     -3356.97750991
  -Hartree energ DENC   =     -2913.57701122
  -exchange      EXHF   =         0.00000000
  -V(xc)+E(xc)   XCENC  =       243.09499514
  PAW double counting   =      4561.46425865    -4688.84813308
  entropy T*S    EENTRO =        -0.41043017
  eigenvalues    EBANDS =      -576.23666996
  atomic energy  EATOM  =      6553.22864978
  Solvation  Ediel_sol  =         0.00000000
  ---------------------------------------------------
  free energy    TOTEN  =       -55.35960005 eV

  energy without entropy =      -54.94916989  energy(sigma->0) =      -55.15438497


--------------------------------------------------------------------------------------------------------




--------------------------------------- Iteration      1(   7)  ---------------------------------------


    EDDIAG:  cpu time    0.0190: real time    0.0190
  RMM-DIIS:  cpu time    0.0460: real time    0.0461
    ORTHCH:  cpu time    0.0010: real time    0.0011
       DOS:  cpu time    0.0010: real time    0.0003
    --------------------------------------------
      LOOP:  cpu time    0.0670: real time    0.0665

 eigenvalue-minimisations  :    50
 total energy-change (2. order) :-0.2647134E+02  (-0.2027009E+02)
 number of electron      84.0000000 magnetization 
 augmentation part       84.0000000 magnetization 

 Free energy of the ion-electron system (eV)
  ---------------------------------------------------
  alpha Z        PSCENC =       122.90225072
  Ewald energy   TEWEN  =     -3356.97750991
  -Hartree energ DENC   =     -2913.57701122
  -exchange      EXHF   =         0.00000000
  -V(xc)+E(xc)   XCENC  =       243.09499514
  PAW double counting   =      4561.46425865    -4688.84813308
  entropy T*S    EENTRO =        -0.31910931
  eigenvalues    EBANDS =      -602.79933559
  atomic energy  EATOM  =      6553.22864978
  Solvation  Ediel_sol  =         0.00000000
  ---------------------------------------------------
  free energy    TOTEN  =       -81.83094484 eV

  energy without entropy =      -81.51183552  energy(sigma->0) =      -81.67139018


--------------------------------------------------------------------------------------------------------




--------------------------------------- Iteration      1(   8)  ---------------------------------------


    EDDIAG:  cpu time    0.0190: real time    0.0190
  RMM-DIIS:  cpu time    0.0460: real time    0.0460
    ORTHCH:  cpu time    0.0010: real time    0.0011
       DOS:  cpu time    0.0000: real time    0.0003
    --------------------------------------------
      LOOP:  cpu time    0.0660: real time    0.0664

 eigenvalue-minimisations  :    50
 total energy-change (2. order) :-0.1320569E+02  (-0.9768616E+01)
 number of electron      84.0000000 magnetization 
 augmentation part       84.0000000 magnetization 

 Free energy of the ion-electron system (eV)
  ---------------------------------------------------
  alpha Z        PSCENC =       122.90225072
  Ewald energy   TEWEN  =     -3356.97750991
  -Hartree energ DENC   =     -2913.57701122
  -exchange      EXHF   =         0.00000000
  -V(xc)+E(xc)   XCENC  =       243.09499514
  PAW double counting   =      4561.46425865    -4688.84813308
  entropy T*S    EENTRO =        -0.28720656
  eigenvalues    EBANDS =      -616.03692881
  atomic energy  EATOM  =      6553.22864978
  Solvation  Ediel_sol  =         0.00000000
  ---------------------------------------------------
  free energy    TOTEN  =       -95.03663531 eV

  energy without entropy =      -94.74942874  energy(sigma->0) =      -94.89303203


--------------------------------------------------------------------------------------------------------




--------------------------------------- Iteration      1(   9)  ---------------------------------------


    EDDIAG:  cpu time    0.0190: real time    0.0190
  RMM-DIIS:  cpu time    0.1360: real time    0.1358
    ORTHCH:  cpu time    0.0010: real time    0.0011
       DOS:  cpu time    0.0000: real time    0.0003
    --------------------------------------------
      LOOP:  cpu time    0.1560: real time    0.1562

 eigenvalue-minimisations  :   162
 total energy-change (2. order) :-0.1981210E+02  (-0.1784342E+02)
 number of electron      84.0000000 magnetization 
 augmentation part       84.0000000 magnetization 

 Free energy of the ion-electron system (eV)
  ---------------------------------------------------
  alpha Z        PSCENC =       122.90225072
  Ewald energy   TEWEN  =     -3356.97750991
  -Hartree energ DENC   =     -2913.57701122
  -exchange      EXHF   =         0.00000000
  -V(xc)+E(xc)   XCENC  =       243.09499514
  PAW double counting   =      4561.46425865    -4688.84813308
  entropy T*S    EENTRO =        -0.28333474
  eigenvalues    EBANDS =      -635.85290276
  atomic energy  EATOM  =      6553.22864978
  Solvation  Ediel_sol  =         0.00000000
  ---------------------------------------------------
  free energy    TOTEN  =      -114.84873743 eV

  energy without entropy =     -114.56540269  energy(sigma->0) =     -114.70707006


--------------------------------------------------------------------------------------------------------




--------------------------------------- Iteration      1(  10)  ---------------------------------------


    EDDIAG:  cpu time    0.0190: real time    0.0190
  RMM-DIIS:  cpu time    0.1410: real time    0.1404
    ORTHCH:  cpu time    0.0010: real time    0.0011
       DOS:  cpu time    0.0000: real time    0.0003
    --------------------------------------------
      LOOP:  cpu time    0.1610: real time    0.1608

 eigenvalue-minimisations  :   168
 total energy-change (2. order) :-0.2952957E+00  (-0.6377760E+00)
 number of electron      84.0000000 magnetization 
 augmentation part       84.0000000 magnetization 

 Free energy of the ion-electron system (eV)
  ---------------------------------------------------
  alpha Z        PSCENC =       122.90225072
  Ewald energy   TEWEN  =     -3356.97750991
  -Hartree energ DENC   =     -2913.57701122
  -exchange      EXHF   =         0.00000000
  -V(xc)+E(xc)   XCENC  =       243.09499514
  PAW double counting   =      4561.46425865    -4688.84813308
  entropy T*S    EENTRO =        -0.30069101
  eigenvalues    EBANDS =      -636.13084216
  atomic energy  EATOM  =      6553.22864978
  Solvation  Ediel_sol  =         0.00000000
  ---------------------------------------------------
  free energy    TOTEN  =      -115.14403311 eV

  energy without entropy =     -114.84334210  energy(sigma->0) =     -114.99368760


--------------------------------------------------------------------------------------------------------




--------------------------------------- Iteration      1(  11)  ---------------------------------------


    EDDIAG:  cpu time    0.0190: real time    0.0190
  RMM-DIIS:  cpu time    0.1400: real time    0.1398
    ORTHCH:  cpu time    0.0010: real time    0.0011
       DOS:  cpu time    0.0000: real time    0.0003
    --------------------------------------------
      LOOP:  cpu time    0.1600: real time    0.1602

 eigenvalue-minimisations  :   168
 total energy-change (2. order) :-0.1688799E-01  (-0.3316782E-01)
 number of electron      84.0000000 magnetization 
 augmentation part       84.0000000 magnetization 

 Free energy of the ion-electron system (eV)
  ---------------------------------------------------
  alpha Z        PSCENC =       122.90225072
  Ewald energy   TEWEN  =     -3356.97750991
  -Hartree energ DENC   =     -2913.57701122
  -exchange      EXHF   =         0.00000000
  -V(xc)+E(xc)   XCENC  =       243.09499514
  PAW double counting   =      4561.46425865    -4688.84813308
  entropy T*S    EENTRO =        -0.30056200
  eigenvalues    EBANDS =      -636.14785917
  atomic energy  EATOM  =      6553.22864978
  Solvation  Ediel_sol  =         0.00000000
  ---------------------------------------------------
  free energy    TOTEN  =      -115.16092110 eV

  energy without entropy =     -114.86035910  energy(sigma->0) =     -115.01064010


--------------------------------------------------------------------------------------------------------




--------------------------------------- Iteration      1(  12)  ---------------------------------------


    EDDIAG:  cpu time    0.0190: real time    0.0190
  RMM-DIIS:  cpu time    0.1390: real time    0.1383
    ORTHCH:  cpu time    0.0010: real time    0.0011
       DOS:  cpu time    0.0000: real time    0.0003
    CHARGE:  cpu time    0.0120: real time    0.0118
    MIXING:  cpu time    0.0020: real time    0.0020
    --------------------------------------------
      LOOP:  cpu time    0.1730: real time    0.1726

 eigenvalue-minimisations  :   166
 total energy-change (2. order) :-0.6232268E-02  (-0.6065073E-02)
 number of electron      84.0000001 magnetization 
 augmentation part       18.8865717 magnetization 

 Broyden mixing:
  rms(total) = 0.28670E+01    rms(broyden)= 0.28655E+01
  rms(prec ) = 0.50773E+01
  weight for this iteration     100.00

 Free energy of the ion-electron system (eV)
  ---------------------------------------------------
  alpha Z        PSCENC =       122.90225072
  Ewald energy   TEWEN  =     -3356.97750991
  -Hartree energ DENC   =     -2913.57701122
  -exchange      EXHF   =         0.00000000
  -V(xc)+E(xc)   XCENC  =       243.09499514
  PAW double counting   =      4561.46425865    -4688.84813308
  entropy T*S    EENTRO =        -0.30091740
  eigenvalues    EBANDS =      -636.15373604
  atomic energy  EATOM  =      6553.22864978
  Solvation  Ediel_sol  =         0.00000000
  ---------------------------------------------------
  free energy    TOTEN  =      -115.16715337 eV

  energy without entropy =     -114.86623597  energy(sigma->0) =     -115.01669467


--------------------------------------------------------------------------------------------------------




--------------------------------------- Iteration      1(  13)  ---------------------------------------


    POTLOK:  cpu time    0.0540: real time    0.0538
    SETDIJ:  cpu time    0.0040: real time    0.0047
    EDDIAG:  cpu time    0.0190: real time    0.0189
  RMM-DIIS:  cpu time    0.1140: real time    0.1136
    ORTHCH:  cpu time    0.0010: real time    0.0011
       DOS:  cpu time    0.0000: real time    0.0003
    CHARGE:  cpu time    0.0120: real time    0.0116
    MIXING:  cpu time    0.0020: real time    0.0019
    --------------------------------------------
      LOOP:  cpu time    0.2060: real time    0.2060

 eigenvalue-minimisations  :   134
 total energy-change (2. order) : 0.1619247E+02  (-0.1635070E+02)
 number of electron      84.0000007 magnetization 
 augmentation part       21.3024162 magnetization 

 Broyden mixing:
  rms(total) = 0.17745E+01    rms(broyden)= 0.17732E+01
  rms(prec ) = 0.27051E+01
  weight for this iteration     100.00

 eigenvalues of (default mixing * dielectric matrix)
  average eigenvalue GAMMA=   0.6602
  0.6602

 Free energy of the ion-electron system (eV)
  ---------------------------------------------------
  alpha Z        PSCENC =       122.90225072
  Ewald energy   TEWEN  =     -3356.97750991
  -Hartree energ DENC   =     -2988.64253841
  -exchange      EXHF   =         0.00000000
  -V(xc)+E(xc)   XCENC  =       250.32245386
  PAW double counting   =      4835.09550659    -4944.38975328
  entropy T*S    EENTRO =        -0.04784942
  eigenvalues    EBANDS =      -570.46589230
  atomic energy  EATOM  =      6553.22864978
  Solvation  Ediel_sol  =         0.00000000
  ---------------------------------------------------
  free energy    TOTEN  =       -98.97468237 eV

  energy without entropy =      -98.92683295  energy(sigma->0) =      -98.95075766


--------------------------------------------------------------------------------------------------------




--------------------------------------- Iteration      1(  14)  ---------------------------------------


    POTLOK:  cpu time    0.0540: real time    0.0539
    SETDIJ:  cpu time    0.0040: real time    0.0047
    EDDIAG:  cpu time    0.0190: real time    0.0189
  RMM-DIIS:  cpu time    0.1100: real time    0.1095
    ORTHCH:  cpu time    0.0010: real time    0.0011
       DOS:  cpu time    0.0000: real time    0.0003
    CHARGE:  cpu time    0.0120: real time    0.0116
    MIXING:  cpu time    0.0010: real time    0.0017
    --------------------------------------------
      LOOP:  cpu time    0.2010: real time    0.2016

 eigenvalue-minimisations  :   130
 total energy-change (2. order) : 0.8518422E+01  (-0.4138450E+01)
 number of electron      84.0000006 magnetization 
 augmentation part       19.3858244 magnetization 

 Broyden mixing:
  rms(total) = 0.62193E+00    rms(broyden)= 0.62084E+00
  rms(prec ) = 0.97520E+00
  weight for this iteration     100.00

 eigenvalues of (default mixing * dielectric matrix)
  average eigenvalue GAMMA=   0.7823
  0.7823  0.7823

 Free energy of the ion-electron system (eV)
  ---------------------------------------------------
  alpha Z        PSCENC =       122.90225072
  Ewald energy   TEWEN  =     -3356.97750991
  -Hartree energ DENC   =     -3077.67620826
  -exchange      EXHF   =         0.00000000
  -V(xc)+E(xc)   XCENC  =       254.70878784
  PAW double counting   =      5010.30205730    -5143.72103991
  entropy T*S    EENTRO =        -0.05841404
  eigenvalues    EBANDS =      -453.16483388
  atomic energy  EATOM  =      6553.22864978
  Solvation  Ediel_sol  =         0.00000000
  ---------------------------------------------------
  free energy    TOTEN  =       -90.45626036 eV

  energy without entropy =      -90.39784632  energy(sigma->0) =      -90.42705334


--------------------------------------------------------------------------------------------------------




--------------------------------------- Iteration      1(  15)  ---------------------------------------


    POTLOK:  cpu time    0.0540: real time    0.0540
    SETDIJ:  cpu time    0.0050: real time    0.0047
    EDDIAG:  cpu time    0.0190: real time    0.0189
  RMM-DIIS:  cpu time    0.1110: real time    0.1116
    ORTHCH:  cpu time    0.0020: real time    0.0011
       DOS:  cpu time    0.0000: real time    0.0003
    CHARGE:  cpu time    0.0110: real time    0.0116
    MIXING:  cpu time    0.0020: real time    0.0017
    --------------------------------------------
      LOOP:  cpu time    0.2040: real time    0.2039

 eigenvalue-minimisations  :   133
 total energy-change (2. order) :-0.6821644E+00  (-0.3289192E+00)
 number of electron      84.0000003 magnetization 
 augmentation part       18.9833984 magnetization 

 Broyden mixing:
  rms(total) = 0.95575E+00    rms(broyden)= 0.95467E+00
  rms(prec ) = 0.16427E+01
  weight for this iteration     100.00

 eigenvalues of (default mixing * dielectric matrix)
  average eigenvalue GAMMA=   0.6197
  0.7710  0.7710  0.3173

 Free energy of the ion-electron system (eV)
  ---------------------------------------------------
  alpha Z        PSCENC =       122.90225072
  Ewald energy   TEWEN  =     -3356.97750991
  -Hartree energ DENC   =     -3084.93524410
  -exchange      EXHF   =         0.00000000
  -V(xc)+E(xc)   XCENC  =       255.01470224
  PAW double counting   =      5073.04790762    -5206.03875071
  entropy T*S    EENTRO =        -0.28302795
  eigenvalues    EBANDS =      -447.09740244
  atomic energy  EATOM  =      6553.22864978
  Solvation  Ediel_sol  =         0.00000000
  ---------------------------------------------------
  free energy    TOTEN  =       -91.13842474 eV

  energy without entropy =      -90.85539679  energy(sigma->0) =      -90.99691077


--------------------------------------------------------------------------------------------------------




--------------------------------------- Iteration      1(  16)  ---------------------------------------


    POTLOK:  cpu time    0.0540: real time    0.0540
    SETDIJ:  cpu time    0.0050: real time    0.0047
    EDDIAG:  cpu time    0.0190: real time    0.0189
  RMM-DIIS:  cpu time    0.1070: real time    0.1087
    ORTHCH:  cpu time    0.0020: real time    0.0011
       DOS:  cpu time    0.0000: real time    0.0003
    CHARGE:  cpu time    0.0110: real time    0.0116
    MIXING:  cpu time    0.0020: real time    0.0018
    --------------------------------------------
      LOOP:  cpu time    0.2000: real time    0.2011

 eigenvalue-minimisations  :   127
 total energy-change (2. order) : 0.5803287E+00  (-0.1468587E+00)
 number of electron      84.0000006 magnetization 
 augmentation part       19.5616449 magnetization 

 Broyden mixing:
  rms(total) = 0.50507E+00    rms(broyden)= 0.50399E+00
  rms(prec ) = 0.78783E+00
  weight for this iteration     100.00

 eigenvalues of (default mixing * dielectric matrix)
  average eigenvalue GAMMA=   0.7873
  1.1717  1.1717  0.5409  0.2650

 Free energy of the ion-electron system (eV)
  ---------------------------------------------------
  alpha Z        PSCENC =       122.90225072
  Ewald energy   TEWEN  =     -3356.97750991
  -Hartree energ DENC   =     -3081.21485607
  -exchange      EXHF   =         0.00000000
  -V(xc)+E(xc)   XCENC  =       254.77173073
  PAW double counting   =      5079.90161134    -5212.27992612
  entropy T*S    EENTRO =        -0.20289232
  eigenvalues    EBANDS =      -450.68715422
  atomic energy  EATOM  =      6553.22864978
  Solvation  Ediel_sol  =         0.00000000
  ---------------------------------------------------
  free energy    TOTEN  =       -90.55809607 eV

  energy without entropy =      -90.35520375  energy(sigma->0) =      -90.45664991


--------------------------------------------------------------------------------------------------------




--------------------------------------- Iteration      1(  17)  ---------------------------------------


    POTLOK:  cpu time    0.0540: real time    0.0540
    SETDIJ:  cpu time    0.0050: real time    0.0047
    EDDIAG:  cpu time    0.0190: real time    0.0190
  RMM-DIIS:  cpu time    0.1110: real time    0.1107
    ORTHCH:  cpu time    0.0010: real time    0.0011
       DOS:  cpu time    0.0000: real time    0.0003
    CHARGE:  cpu time    0.0120: real time    0.0116
    MIXING:  cpu time    0.0020: real time    0.0019
    --------------------------------------------
      LOOP:  cpu time    0.2040: real time    0.2033

 eigenvalue-minimisations  :   132
 total energy-change (2. order) :-0.5277672E-01  (-0.1284865E+00)
 number of electron      84.0000006 magnetization 
 augmentation part       19.5310008 magnetization 

 Broyden mixing:
  rms(total) = 0.29838E+00    rms(broyden)= 0.29759E+00
  rms(prec ) = 0.62928E+00
  weight for this iteration     100.00

 eigenvalues of (default mixing * dielectric matrix)
  average eigenvalue GAMMA=   0.8758
  2.0304  1.0345  0.6798  0.3171  0.3171

 Free energy of the ion-electron system (eV)
  ---------------------------------------------------
  alpha Z        PSCENC =       122.90225072
  Ewald energy   TEWEN  =     -3356.97750991
  -Hartree energ DENC   =     -3083.17482413
  -exchange      EXHF   =         0.00000000
  -V(xc)+E(xc)   XCENC  =       254.57144837
  PAW double counting   =      5113.61066863    -5246.38996776
  entropy T*S    EENTRO =        -0.04156281
  eigenvalues    EBANDS =      -448.34002569
  atomic energy  EATOM  =      6553.22864978
  Solvation  Ediel_sol  =         0.00000000
  ---------------------------------------------------
  free energy    TOTEN  =       -90.61087279 eV

  energy without entropy =      -90.56930999  energy(sigma->0) =      -90.59009139


--------------------------------------------------------------------------------------------------------




--------------------------------------- Iteration      1(  18)  ---------------------------------------


    POTLOK:  cpu time    0.0540: real time    0.0541
    SETDIJ:  cpu time    0.0040: real time    0.0047
    EDDIAG:  cpu time    0.0190: real time    0.0189
  RMM-DIIS:  cpu time    0.1080: real time    0.1081
    ORTHCH:  cpu time    0.0010: real time    0.0011
       DOS:  cpu time    0.0010: real time    0.0003
    CHARGE:  cpu time    0.0110: real time    0.0116
    MIXING:  cpu time    0.0020: real time    0.0018
    --------------------------------------------
      LOOP:  cpu time    0.2000: real time    0.2007

 eigenvalue-minimisations  :   127
 total energy-change (2. order) : 0.1101093E+00  (-0.3544664E-01)
 number of electron      84.0000006 magnetization 
 augmentation part       19.2162005 magnetization 

 Broyden mixing:
  rms(total) = 0.39983E+00    rms(broyden)= 0.39937E+00
  rms(prec ) = 0.74547E+00
  weight for this iteration     100.00

 eigenvalues of (default mixing * dielectric matrix)
  average eigenvalue GAMMA=   0.9048
  2.3712  0.9167  0.9167  0.4799  0.4799  0.2641

 Free energy of the ion-electron system (eV)
  ---------------------------------------------------
  alpha Z        PSCENC =       122.90225072
  Ewald energy   TEWEN  =     -3356.97750991
  -Hartree energ DENC   =     -3101.08061029
  -exchange      EXHF   =         0.00000000
  -V(xc)+E(xc)   XCENC  =       255.39181796
  PAW double counting   =      5187.70365272    -5320.58021310
  entropy T*S    EENTRO =        -0.09839073
  eigenvalues    EBANDS =      -430.99041068
  atomic energy  EATOM  =      6553.22864978
  Solvation  Ediel_sol  =         0.00000000
  ---------------------------------------------------
  free energy    TOTEN  =       -90.50076354 eV

  energy without entropy =      -90.40237281  energy(sigma->0) =      -90.45156818


--------------------------------------------------------------------------------------------------------




--------------------------------------- Iteration      1(  19)  ---------------------------------------


    POTLOK:  cpu time    0.0540: real time    0.0540
    SETDIJ:  cpu time    0.0050: real time    0.0047
    EDDIAG:  cpu time    0.0190: real time    0.0189
  RMM-DIIS:  cpu time    0.1090: real time    0.1093
    ORTHCH:  cpu time    0.0010: real time    0.0011
       DOS:  cpu time    0.0000: real time    0.0003
    CHARGE:  cpu time    0.0120: real time    0.0116
    MIXING:  cpu time    0.0020: real time    0.0018
    --------------------------------------------
      LOOP:  cpu time    0.2020: real time    0.2017

 eigenvalue-minimisations  :   130
 total energy-change (2. order) : 0.9972665E-01  (-0.4853807E-01)
 number of electron      84.0000006 magnetization 
 augmentation part       19.6348015 magnetization 

 Broyden mixing:
  rms(total) = 0.24857E+00    rms(broyden)= 0.24702E+00
  rms(prec ) = 0.42171E+00
  weight for this iteration     100.00

 eigenvalues of (default mixing * dielectric matrix)
  average eigenvalue GAMMA=   0.8286
  2.3418  0.9175  0.9175  0.4895  0.4895  0.3904  0.2539

 Free energy of the ion-electron system (eV)
  ---------------------------------------------------
  alpha Z        PSCENC =       122.90225072
  Ewald energy   TEWEN  =     -3356.97750991
  -Hartree energ DENC   =     -3098.79814995
  -exchange      EXHF   =         0.00000000
  -V(xc)+E(xc)   XCENC  =       255.42109933
  PAW double counting   =      5192.60499356    -5324.09127556
  entropy T*S    EENTRO =        -0.19275683
  eigenvalues    EBANDS =      -434.49833803
  atomic energy  EATOM  =      6553.22864978
  Solvation  Ediel_sol  =         0.00000000
  ---------------------------------------------------
  free energy    TOTEN  =       -90.40103689 eV

  energy without entropy =      -90.20828006  energy(sigma->0) =      -90.30465848


--------------------------------------------------------------------------------------------------------




--------------------------------------- Iteration      1(  20)  ---------------------------------------


    POTLOK:  cpu time    0.0540: real time    0.0540
    SETDIJ:  cpu time    0.0050: real time    0.0046
    EDDIAG:  cpu time    0.0180: real time    0.0189
  RMM-DIIS:  cpu time    0.1240: real time    0.1234
    ORTHCH:  cpu time    0.0010: real time    0.0011
       DOS:  cpu time    0.0000: real time    0.0003
    CHARGE:  cpu time    0.0120: real time    0.0116
    MIXING:  cpu time    0.0020: real time    0.0019
    --------------------------------------------
      LOOP:  cpu time    0.2160: real time    0.2160

 eigenvalue-minimisations  :   147
 total energy-change (2. order) : 0.3108641E-01  (-0.8141284E-02)
 number of electron      84.0000006 magnetization 
 augmentation part       19.5862664 magnetization 

 Broyden mixing:
  rms(total) = 0.20471E+00    rms(broyden)= 0.20463E+00
  rms(prec ) = 0.35547E+00
  weight for this iteration     100.00

 eigenvalues of (default mixing * dielectric matrix)
  average eigenvalue GAMMA=   0.8076
  2.4225  0.9520  0.9520  0.7187  0.4068  0.4068  0.2610  0.3415

 Free energy of the ion-electron system (eV)
  ---------------------------------------------------
  alpha Z        PSCENC =       122.90225072
  Ewald energy   TEWEN  =     -3356.97750991
  -Hartree energ DENC   =     -3100.18825814
  -exchange      EXHF   =         0.00000000
  -V(xc)+E(xc)   XCENC  =       255.48368562
  PAW double counting   =      5194.10169178    -5325.77000623
  entropy T*S    EENTRO =        -0.18900756
  eigenvalues    EBANDS =      -432.96144654
  atomic energy  EATOM  =      6553.22864978
  Solvation  Ediel_sol  =         0.00000000
  ---------------------------------------------------
  free energy    TOTEN  =       -90.36995048 eV

  energy without entropy =      -90.18094292  energy(sigma->0) =      -90.27544670


--------------------------------------------------------------------------------------------------------




--------------------------------------- Iteration      1(  21)  ---------------------------------------


    POTLOK:  cpu time    0.0540: real time    0.0540
    SETDIJ:  cpu time    0.0050: real time    0.0047
    EDDIAG:  cpu time    0.0180: real time    0.0189
  RMM-DIIS:  cpu time    0.1050: real time    0.1049
    ORTHCH:  cpu time    0.0010: real time    0.0011
       DOS:  cpu time    0.0010: real time    0.0003
    CHARGE:  cpu time    0.0110: real time    0.0116
    MIXING:  cpu time    0.0020: real time    0.0020
    --------------------------------------------
      LOOP:  cpu time    0.1970: real time    0.1975

 eigenvalue-minimisations  :   124
 total energy-change (2. order) : 0.4115873E-01  (-0.4360581E-02)
 number of electron      84.0000006 magnetization 
 augmentation part       19.4945962 magnetization 

 Broyden mixing:
  rms(total) = 0.10619E+00    rms(broyden)= 0.10607E+00
  rms(prec ) = 0.18230E+00
  weight for this iteration     100.00

 eigenvalues of (default mixing * dielectric matrix)
  average eigenvalue GAMMA=   0.8248
  2.4543  0.9795  0.9795  0.7496  0.7496  0.4859  0.4859  0.2893  0.2495

 Free energy of the ion-electron system (eV)
  ---------------------------------------------------
  alpha Z        PSCENC =       122.90225072
  Ewald energy   TEWEN  =     -3356.97750991
  -Hartree energ DENC   =     -3104.64366839
  -exchange      EXHF   =         0.00000000
  -V(xc)+E(xc)   XCENC  =       255.67787451
  PAW double counting   =      5202.12354312    -5334.21499841
  entropy T*S    EENTRO =        -0.17439144
  eigenvalues    EBANDS =      -428.25054173
  atomic energy  EATOM  =      6553.22864978
  Solvation  Ediel_sol  =         0.00000000
  ---------------------------------------------------
  free energy    TOTEN  =       -90.32879175 eV

  energy without entropy =      -90.15440031  energy(sigma->0) =      -90.24159603


--------------------------------------------------------------------------------------------------------




--------------------------------------- Iteration      1(  22)  ---------------------------------------


    POTLOK:  cpu time    0.0530: real time    0.0540
    SETDIJ:  cpu time    0.0050: real time    0.0047
    EDDIAG:  cpu time    0.0190: real time    0.0189
  RMM-DIIS:  cpu time    0.1200: real time    0.1202
    ORTHCH:  cpu time    0.0010: real time    0.0011
       DOS:  cpu time    0.0010: real time    0.0003
    CHARGE:  cpu time    0.0110: real time    0.0116
    MIXING:  cpu time    0.0020: real time    0.0022
    --------------------------------------------
      LOOP:  cpu time    0.2120: real time    0.2129

 eigenvalue-minimisations  :   143
 total energy-change (2. order) : 0.2082459E-03  (-0.1564683E-02)
 number of electron      84.0000006 magnetization 
 augmentation part       19.4570574 magnetization 

 Broyden mixing:
  rms(total) = 0.95229E-01    rms(broyden)= 0.95202E-01
  rms(prec ) = 0.18025E+00
  weight for this iteration     100.00

 eigenvalues of (default mixing * dielectric matrix)
  average eigenvalue GAMMA=   0.9713
  2.5040  2.2754  0.9993  0.8968  0.8968  0.6980  0.4493  0.4493  0.2923  0.2519

 Free energy of the ion-electron system (eV)
  ---------------------------------------------------
  alpha Z        PSCENC =       122.90225072
  Ewald energy   TEWEN  =     -3356.97750991
  -Hartree energ DENC   =     -3107.20459964
  -exchange      EXHF   =         0.00000000
  -V(xc)+E(xc)   XCENC  =       255.79281683
  PAW double counting   =      5205.38431950    -5337.32880792
  entropy T*S    EENTRO =        -0.18977855
  eigenvalues    EBANDS =      -425.93592430
  atomic energy  EATOM  =      6553.22864978
  Solvation  Ediel_sol  =         0.00000000
  ---------------------------------------------------
  free energy    TOTEN  =       -90.32858350 eV

  energy without entropy =      -90.13880495  energy(sigma->0) =      -90.23369423


--------------------------------------------------------------------------------------------------------




--------------------------------------- Iteration      1(  23)  ---------------------------------------


    POTLOK:  cpu time    0.0540: real time    0.0541
    SETDIJ:  cpu time    0.0050: real time    0.0047
    EDDIAG:  cpu time    0.0190: real time    0.0189
  RMM-DIIS:  cpu time    0.1070: real time    0.1066
    ORTHCH:  cpu time    0.0010: real time    0.0011
       DOS:  cpu time    0.0000: real time    0.0003
    CHARGE:  cpu time    0.0110: real time    0.0116
    MIXING:  cpu time    0.0030: real time    0.0021
    --------------------------------------------
      LOOP:  cpu time    0.2000: real time    0.1993

 eigenvalue-minimisations  :   125
 total energy-change (2. order) : 0.2568645E-02  (-0.2067014E-02)
 number of electron      84.0000006 magnetization 
 augmentation part       19.3684419 magnetization 

 Broyden mixing:
  rms(total) = 0.56156E-01    rms(broyden)= 0.55620E-01
  rms(prec ) = 0.11170E+00
  weight for this iteration     100.00

 eigenvalues of (default mixing * dielectric matrix)
  average eigenvalue GAMMA=   0.9322
  2.4177  2.4177  0.9233  0.9233  0.8514  0.8514  0.4521  0.4521  0.4221  0.2515
  0.2919

 Free energy of the ion-electron system (eV)
  ---------------------------------------------------
  alpha Z        PSCENC =       122.90225072
  Ewald energy   TEWEN  =     -3356.97750991
  -Hartree energ DENC   =     -3110.53468745
  -exchange      EXHF   =         0.00000000
  -V(xc)+E(xc)   XCENC  =       255.91097365
  PAW double counting   =      5208.14947144    -5340.01368954
  entropy T*S    EENTRO =        -0.16626193
  eigenvalues    EBANDS =      -422.82521163
  atomic energy  EATOM  =      6553.22864978
  Solvation  Ediel_sol  =         0.00000000
  ---------------------------------------------------
  free energy    TOTEN  =       -90.32601486 eV

  energy without entropy =      -90.15975292  energy(sigma->0) =      -90.24288389


--------------------------------------------------------------------------------------------------------




--------------------------------------- Iteration      1(  24)  ---------------------------------------


    POTLOK:  cpu time    0.0530: real time    0.0539
    SETDIJ:  cpu time    0.0050: real time    0.0047
    EDDIAG:  cpu time    0.0190: real time    0.0189
  RMM-DIIS:  cpu time    0.1110: real time    0.1107
    ORTHCH:  cpu time    0.0010: real time    0.0011
       DOS:  cpu time    0.0000: real time    0.0003
    CHARGE:  cpu time    0.0120: real time    0.0117
    MIXING:  cpu time    0.0020: real time    0.0021
    --------------------------------------------
      LOOP:  cpu time    0.2030: real time    0.2033

 eigenvalue-minimisations  :   132
 total energy-change (2. order) : 0.7585333E-03  (-0.3042116E-03)
 number of electron      84.0000006 magnetization 
 augmentation part       19.3829343 magnetization 

 Broyden mixing:
  rms(total) = 0.30404E-01    rms(broyden)= 0.30383E-01
  rms(prec ) = 0.64940E-01
  weight for this iteration     100.00

 eigenvalues of (default mixing * dielectric matrix)
  average eigenvalue GAMMA=   0.9680
  2.4972  1.9970  1.1584  1.1584  1.0477  0.8664  0.8664  0.5848  0.4480  0.4480
  0.2922  0.2516

 Free energy of the ion-electron system (eV)
  ---------------------------------------------------
  alpha Z        PSCENC =       122.90225072
  Ewald energy   TEWEN  =     -3356.97750991
  -Hartree energ DENC   =     -3110.22645152
  -exchange      EXHF   =         0.00000000
  -V(xc)+E(xc)   XCENC  =       255.89088415
  PAW double counting   =      5206.87165512    -5338.68939059
  entropy T*S    EENTRO =        -0.16560168
  eigenvalues    EBANDS =      -423.15974239
  atomic energy  EATOM  =      6553.22864978
  Solvation  Ediel_sol  =         0.00000000
  ---------------------------------------------------
  free energy    TOTEN  =       -90.32525632 eV

  energy without entropy =      -90.15965464  energy(sigma->0) =      -90.24245548


--------------------------------------------------------------------------------------------------------




--------------------------------------- Iteration      1(  25)  ---------------------------------------


    POTLOK:  cpu time    0.0540: real time    0.0539
    SETDIJ:  cpu time    0.0050: real time    0.0046
    EDDIAG:  cpu time    0.0180: real time    0.0190
  RMM-DIIS:  cpu time    0.1130: real time    0.1121
    ORTHCH:  cpu time    0.0010: real time    0.0011
       DOS:  cpu time    0.0000: real time    0.0003
    CHARGE:  cpu time    0.0120: real time    0.0116
    MIXING:  cpu time    0.0020: real time    0.0023
    --------------------------------------------
      LOOP:  cpu time    0.2050: real time    0.2050

 eigenvalue-minimisations  :   133
 total energy-change (2. order) : 0.6614063E-03  (-0.1293840E-03)
 number of electron      84.0000006 magnetization 
 augmentation part       19.4009054 magnetization 

 Broyden mixing:
  rms(total) = 0.18370E-01    rms(broyden)= 0.18185E-01
  rms(prec ) = 0.34001E-01
  weight for this iteration     100.00

 eigenvalues of (default mixing * dielectric matrix)
  average eigenvalue GAMMA=   1.0194
  2.9455  2.3542  1.3289  1.0399  1.0399  0.8643  0.8643  0.7331  0.6452  0.4463
  0.4463  0.2923  0.2516

 Free energy of the ion-electron system (eV)
  ---------------------------------------------------
  alpha Z        PSCENC =       122.90225072
  Ewald energy   TEWEN  =     -3356.97750991
  -Hartree energ DENC   =     -3109.94916972
  -exchange      EXHF   =         0.00000000
  -V(xc)+E(xc)   XCENC  =       255.87916755
  PAW double counting   =      5205.32819478    -5337.08605855
  entropy T*S    EENTRO =        -0.17531083
  eigenvalues    EBANDS =      -423.47480873
  atomic energy  EATOM  =      6553.22864978
  Solvation  Ediel_sol  =         0.00000000
  ---------------------------------------------------
  free energy    TOTEN  =       -90.32459492 eV

  energy without entropy =      -90.14928409  energy(sigma->0) =      -90.23693950


--------------------------------------------------------------------------------------------------------




--------------------------------------- Iteration      1(  26)  ---------------------------------------


    POTLOK:  cpu time    0.0540: real time    0.0537
    SETDIJ:  cpu time    0.0040: real time    0.0047
    EDDIAG:  cpu time    0.0190: real time    0.0190
  RMM-DIIS:  cpu time    0.0990: real time    0.0989
    ORTHCH:  cpu time    0.0010: real time    0.0011
       DOS:  cpu time    0.0010: real time    0.0003
    CHARGE:  cpu time    0.0110: real time    0.0116
    MIXING:  cpu time    0.0020: real time    0.0023
    --------------------------------------------
      LOOP:  cpu time    0.1920: real time    0.1916

 eigenvalue-minimisations  :   117
 total energy-change (2. order) : 0.2878684E-04  (-0.3374111E-04)
 number of electron      84.0000006 magnetization 
 augmentation part       19.3893704 magnetization 

 Broyden mixing:
  rms(total) = 0.54491E-02    rms(broyden)= 0.53750E-02
  rms(prec ) = 0.90160E-02
  weight for this iteration     100.00

 eigenvalues of (default mixing * dielectric matrix)
  average eigenvalue GAMMA=   1.0125
  2.9253  2.4609  1.4861  0.9587  0.9587  0.8647  0.8647  0.7995  0.7995  0.6209
  0.4463  0.4463  0.2923  0.2516

 Free energy of the ion-electron system (eV)
  ---------------------------------------------------
  alpha Z        PSCENC =       122.90225072
  Ewald energy   TEWEN  =     -3356.97750991
  -Hartree energ DENC   =     -3110.37524680
  -exchange      EXHF   =         0.00000000
  -V(xc)+E(xc)   XCENC  =       255.89316385
  PAW double counting   =      5205.22667936    -5336.96705261
  entropy T*S    EENTRO =        -0.17208036
  eigenvalues    EBANDS =      -423.08342017
  atomic energy  EATOM  =      6553.22864978
  Solvation  Ediel_sol  =         0.00000000
  ---------------------------------------------------
  free energy    TOTEN  =       -90.32456613 eV

  energy without entropy =      -90.15248577  energy(sigma->0) =      -90.23852595


--------------------------------------------------------------------------------------------------------




--------------------------------------- Iteration      1(  27)  ---------------------------------------


    POTLOK:  cpu time    0.0550: real time    0.0541
    SETDIJ:  cpu time    0.0040: real time    0.0046
    EDDIAG:  cpu time    0.0190: real time    0.0189
  RMM-DIIS:  cpu time    0.1120: real time    0.1120
    ORTHCH:  cpu time    0.0010: real time    0.0011
       DOS:  cpu time    0.0000: real time    0.0003
    CHARGE:  cpu time    0.0120: real time    0.0116
    MIXING:  cpu time    0.0030: real time    0.0026
    --------------------------------------------
      LOOP:  cpu time    0.2050: real time    0.2052

 eigenvalue-minimisations  :   133
 total energy-change (2. order) :-0.1343850E-04  (-0.9556280E-05)
 number of electron      84.0000006 magnetization 
 augmentation part       19.3920865 magnetization 

 Broyden mixing:
  rms(total) = 0.53809E-02    rms(broyden)= 0.53752E-02
  rms(prec ) = 0.10834E-01
  weight for this iteration     100.00

 eigenvalues of (default mixing * dielectric matrix)
  average eigenvalue GAMMA=   1.0490
[...]
    SETDIJ:  cpu time    0.0040: real time    0.0047
    EDDIAG:  cpu time    0.0190: real time    0.0189
  RMM-DIIS:  cpu time    0.0900: real time    0.0901
    ORTHCH:  cpu time    0.0010: real time    0.0011
       DOS:  cpu time    0.0010: real time    0.0003
    CHARGE:  cpu time    0.0110: real time    0.0117
    MIXING:  cpu time    0.0030: real time    0.0025
    --------------------------------------------
      LOOP:  cpu time    0.1830: real time    0.1831

 eigenvalue-minimisations  :   104
 total energy-change (2. order) : 0.1873561E-04  (-0.1615054E-05)
 number of electron      84.0000006 magnetization 
 augmentation part       19.3920259 magnetization 

 Broyden mixing:
  rms(total) = 0.27030E-02    rms(broyden)= 0.26955E-02
  rms(prec ) = 0.44364E-02
  weight for this iteration     100.00

 eigenvalues of (default mixing * dielectric matrix)
  average eigenvalue GAMMA=   1.1070
  3.4703  2.5380  1.7612  1.7612  0.9368  0.9368  0.9192  0.9192  0.8823  0.7774
  0.7774  0.5955  0.4463  0.4463  0.2516  0.2923

 Free energy of the ion-electron system (eV)
  ---------------------------------------------------
  alpha Z        PSCENC =       122.90225072
  Ewald energy   TEWEN  =     -3356.97750991
  -Hartree energ DENC   =     -3110.31410455
  -exchange      EXHF   =         0.00000000
  -V(xc)+E(xc)   XCENC  =       255.88779785
  PAW double counting   =      5204.58282456    -5336.33647353
  entropy T*S    EENTRO =        -0.17198016
  eigenvalues    EBANDS =      -423.12601560
  atomic energy  EATOM  =      6553.22864978
  Solvation  Ediel_sol  =         0.00000000
  ---------------------------------------------------
  free energy    TOTEN  =       -90.32456083 eV

  energy without entropy =      -90.15258068  energy(sigma->0) =      -90.23857075


--------------------------------------------------------------------------------------------------------




--------------------------------------- Iteration      1(  29)  ---------------------------------------


    POTLOK:  cpu time    0.0540: real time    0.0539
    SETDIJ:  cpu time    0.0040: real time    0.0047
    EDDIAG:  cpu time    0.0190: real time    0.0189
  RMM-DIIS:  cpu time    0.0770: real time    0.0767
    ORTHCH:  cpu time    0.0010: real time    0.0011
       DOS:  cpu time    0.0000: real time    0.0003
    CHARGE:  cpu time    0.0120: real time    0.0116
    MIXING:  cpu time    0.0030: real time    0.0026
    --------------------------------------------
      LOOP:  cpu time    0.1700: real time    0.1698

 eigenvalue-minimisations  :    88
 total energy-change (2. order) :-0.1487312E-05  (-0.1072653E-05)
 number of electron      84.0000006 magnetization 
 augmentation part       19.3940180 magnetization 

 Broyden mixing:
  rms(total) = 0.12326E-02    rms(broyden)= 0.12218E-02
  rms(prec ) = 0.23122E-02
  weight for this iteration     100.00

 eigenvalues of (default mixing * dielectric matrix)
  average eigenvalue GAMMA=   1.1369
  3.3162  2.4211  2.4211  1.9828  0.9492  0.9492  0.9627  0.9627  0.8265  0.8265
  0.8373  0.8373  0.5977  0.4463  0.4463  0.2516  0.2923

 Free energy of the ion-electron system (eV)
  ---------------------------------------------------
  alpha Z        PSCENC =       122.90225072
  Ewald energy   TEWEN  =     -3356.97750991
  -Hartree energ DENC   =     -3110.27039523
  -exchange      EXHF   =         0.00000000
  -V(xc)+E(xc)   XCENC  =       255.88599066
  PAW double counting   =      5204.52833149    -5336.28477882
  entropy T*S    EENTRO =        -0.17221906
  eigenvalues    EBANDS =      -423.16488194
  atomic energy  EATOM  =      6553.22864978
  Solvation  Ediel_sol  =         0.00000000
  ---------------------------------------------------
  free energy    TOTEN  =       -90.32456232 eV

  energy without entropy =      -90.15234326  energy(sigma->0) =      -90.23845279


--------------------------------------------------------------------------------------------------------




--------------------------------------- Iteration      1(  30)  ---------------------------------------


    POTLOK:  cpu time    0.0530: real time    0.0539
    SETDIJ:  cpu time    0.0050: real time    0.0047
    EDDIAG:  cpu time    0.0190: real time    0.0189
  RMM-DIIS:  cpu time    0.0740: real time    0.0741
    ORTHCH:  cpu time    0.0010: real time    0.0011
       DOS:  cpu time    0.0010: real time    0.0003
    CHARGE:  cpu time    0.0110: real time    0.0116
    MIXING:  cpu time    0.0030: real time    0.0027
    --------------------------------------------
      LOOP:  cpu time    0.1670: real time    0.1673

 eigenvalue-minimisations  :    85
 total energy-change (2. order) :-0.1348137E-05  (-0.4280744E-06)
 number of electron      84.0000006 magnetization 
 augmentation part       19.3947745 magnetization 

 Broyden mixing:
  rms(total) = 0.58074E-03    rms(broyden)= 0.57689E-03
  rms(prec ) = 0.10446E-02
  weight for this iteration     100.00

 eigenvalues of (default mixing * dielectric matrix)
  average eigenvalue GAMMA=   1.1414
  3.4228  2.5250  2.1246  2.1246  1.1621  1.1621  0.9389  0.9389  0.8571  0.8571
  0.7918  0.7918  0.8136  0.4463  0.4463  0.5980  0.2516  0.2923

 Free energy of the ion-electron system (eV)
  ---------------------------------------------------
  alpha Z        PSCENC =       122.90225072
  Ewald energy   TEWEN  =     -3356.97750991
  -Hartree energ DENC   =     -3110.25001529
  -exchange      EXHF   =         0.00000000
  -V(xc)+E(xc)   XCENC  =       255.88518237
  PAW double counting   =      5204.57405974    -5336.33388602
  entropy T*S    EENTRO =        -0.17212306
  eigenvalues    EBANDS =      -423.18117199
  atomic energy  EATOM  =      6553.22864978
  Solvation  Ediel_sol  =         0.00000000
  ---------------------------------------------------
  free energy    TOTEN  =       -90.32456367 eV

  energy without entropy =      -90.15244061  energy(sigma->0) =      -90.23850214


--------------------------------------------------------------------------------------------------------




--------------------------------------- Iteration      1(  31)  ---------------------------------------


    POTLOK:  cpu time    0.0540: real time    0.0540
    SETDIJ:  cpu time    0.0040: real time    0.0046
    EDDIAG:  cpu time    0.0190: real time    0.0189
  RMM-DIIS:  cpu time    0.0720: real time    0.0716
    ORTHCH:  cpu time    0.0010: real time    0.0011
       DOS:  cpu time    0.0000: real time    0.0003
    --------------------------------------------
      LOOP:  cpu time    0.1500: real time    0.1505

 eigenvalue-minimisations  :    68
 total energy-change (2. order) : 0.1930312E-07  (-0.7241906E-07)
 number of electron      84.0000006 magnetization 
 augmentation part       19.3947745 magnetization 

 Free energy of the ion-electron system (eV)
  ---------------------------------------------------
  alpha Z        PSCENC =       122.90225072
  Ewald energy   TEWEN  =     -3356.97750991
  -Hartree energ DENC   =     -3110.25057353
  -exchange      EXHF   =         0.00000000
  -V(xc)+E(xc)   XCENC  =       255.88493757
  PAW double counting   =      5204.56571975    -5336.32524707
  entropy T*S    EENTRO =        -0.17195132
  eigenvalues    EBANDS =      -423.18083965
  atomic energy  EATOM  =      6553.22864978
  Solvation  Ediel_sol  =         0.00000000
  ---------------------------------------------------
  free energy    TOTEN  =       -90.32456365 eV

  energy without entropy =      -90.15261233  energy(sigma->0) =      -90.23858799


--------------------------------------------------------------------------------------------------------




 average (electrostatic) potential at core
  the test charge radii are     1.0406  0.9430  0.7215  0.9892
  (the norm of the test charge is              1.0000)
       1 -75.7378       2 -75.4899       3 -69.2690       4 -68.8959       5 -71.8233
       6 -74.4419       7 -74.3902       8 -72.6786       9 -73.5553      10 -73.4555
      11 -73.0416      12 -73.6635      13 -87.8857      14 -87.3518
 
 
 
 E-fermi :   0.6258     XC(G=0):  -8.0828     alpha+bet : -8.2950


 k-point     1 :       0.0000    0.0000    0.0000
  band No.  band energies     occupation 
      1     -19.3879      2.00000
      2     -18.4831      2.00000
      3     -17.7913      2.00000
      4     -17.5804      2.00000
      5     -17.2940      2.00000
      6     -16.8450      2.00000
      7     -16.4608      2.00000
      8     -15.4912      2.00000
      9      -8.0233      2.00000
     10      -7.5108      2.00000
     11      -6.2262      2.00000
     12      -5.0976      2.00000
     13      -4.9849      2.00000
     14      -4.7918      2.00000
     15      -4.1511      2.00000
     16      -4.0894      2.00000
     17      -3.4910      2.00000
     18      -3.0982      2.00000
     19      -2.9210      2.00000
     20      -2.5514      2.00000
     21      -2.2346      2.00000
     22      -2.0713      2.00000
     23      -1.8971      2.00000
     24      -1.7745      2.00000
     25      -1.5002      2.00000
     26      -1.4283      2.00000
     27      -1.2607      2.00000
     28      -0.8884      2.00000
     29      -0.8529      2.00000
     30      -0.7407      2.00000
     31      -0.6044      2.00000
     32      -0.4408      2.00000
     33      -0.3783      2.00000
     34      -0.2755      2.00000
     35      -0.1827      2.00000
     36      -0.1139      2.00000
     37      -0.0355      2.00000
     38       0.0352      1.99997
     39       0.1379      1.99944
     40       0.2635      1.98958
     41       0.3980      1.89272
     42       0.4667      1.73939
     43       0.7502      0.37890
     44       4.5624      0.00000
     45       6.1416      0.00000
     46       6.2141      0.00000
     47       7.0619      0.00000
     48       7.7071      0.00000
     49       7.9212      0.00000
     50       8.6442      0.00000


--------------------------------------------------------------------------------------------------------


 soft charge-density along one line, spin component           1
         0         1         2         3         4         5         6         7         8         9
 total charge-density along one line
 
 pseudopotential strength for first ion, spin component:           1
  8.611  -0.003  -0.002   0.005  -0.005  -0.000   0.000  -0.000
 -0.003   0.000  -0.000   0.000  -0.000   0.000  -0.000   0.000
 -0.002  -0.000   2.011  -0.000   0.000  -0.021   0.000  -0.000
  0.005   0.000  -0.000   2.010   0.000   0.000  -0.021  -0.000
 -0.005  -0.000   0.000   0.000   2.010  -0.000  -0.000  -0.021
 -0.000   0.000  -0.021   0.000  -0.000  -0.013   0.000  -0.000
  0.000  -0.000   0.000  -0.021  -0.000   0.000  -0.013  -0.000
 -0.000   0.000  -0.000  -0.000  -0.021  -0.000  -0.000  -0.013
 total augmentation occupancy for first ion, spin component:           1
  1.073  -1.681   0.007  -0.036   0.075  -0.005   0.020  -0.024
 -1.681   3.117   0.011  -0.010   0.042  -0.002  -0.005  -0.008
  0.007   0.011   1.295   0.009  -0.005  -0.538  -0.003   0.001
 -0.036  -0.010   0.009   1.196   0.004  -0.002  -0.518   0.001
  0.075   0.042  -0.005   0.004   1.332   0.001   0.002  -0.552
 -0.005  -0.002  -0.538  -0.002   0.001   0.245   0.001   0.000
  0.020  -0.005  -0.003  -0.518   0.002   0.001   0.243  -0.002
 -0.024  -0.008   0.001   0.001  -0.552   0.000  -0.002   0.253


------------------------ aborting loop because EDIFF is reached ----------------------------------------


    CHARGE:  cpu time    0.0220: real time    0.0223
    FORLOC:  cpu time    0.0110: real time    0.0111
    FORNL :  cpu time    0.0570: real time    0.0572
    STRESS:  cpu time    0.1780: real time    0.1781
    FORCOR:  cpu time    0.0600: real time    0.0600
    FORHAR:  cpu time    0.0210: real time    0.0204
    MIXING:  cpu time    0.0030: real time    0.0035
    OFIELD:  cpu time    0.0000: real time    0.0000

  DFT-D2 method for vdW energy calculation
  -------------------------------------------------------------------

  Parameters of vdW forcefield:
         C6(Jnm^6/mol)     R0(A)
   -----------------------------
   Al      10.790          1.639
   Cu      10.800          1.562
   O        0.700          1.342
   Si       9.230          1.716

  IVDW =   1
  VDW_RADIUS =    50.000 A
  VDW_S6 =     0.750
  VDW_SR =     1.000
  VDW_D =    20.000
  LVDW_EWALD = F

  Number of pair interactions contributing to vdW energy:  241418
  Edisp (eV):   -1.56971
    FORVDW:  cpu time    0.0570: real time    0.0578

  FORCE on cell =-STRESS in cart. coord.  units (eV):
  Direction    XX          YY          ZZ          XY          YZ          ZX
  --------------------------------------------------------------------------------------
  Alpha Z   122.90225   122.90225   122.90225
  Ewald    -670.16346 -1318.67318 -1368.14955  -178.17047  -339.59162   264.16204
  Hartree  1337.09383   904.66961   868.49662  -137.13418  -258.36311   178.15820
  E(xc)    -422.52282  -423.47233  -423.23787    -0.14807    -0.23036     0.21164
  Local   -1783.85919  -718.76477  -631.66831   318.01937   594.50917  -435.86085
  n-local  -147.78190  -147.35673  -151.11325    -3.31932     0.66702     0.44748
  augment   227.86046   230.44529   232.96941    -0.09837    -0.61917    -1.10935
  Kinetic  1353.00247  1373.58559  1367.09673     1.07933     2.68262    -5.28996
  Fock        0.00000     0.00000     0.00000     0.00000     0.00000     0.00000
  vdW        -0.98706    -1.16069    -1.16636     0.03496    -0.10894     0.10069
  -------------------------------------------------------------------------------------
  Total      15.54458    22.17505    16.12967     0.26323    -1.05438     0.81989
  in kB     109.49162   156.19470   113.61282     1.85411    -7.42677     5.77507
  external pressure =      126.43 kB  Pullay stress =        0.00 kB


 VOLUME and BASIS-vectors are now :
 -----------------------------------------------------------------------------
  energy-cutoff  :      400.00
  volume of cell :      227.46
      direct lattice vectors                 reciprocal lattice vectors
    -4.936500000  2.627000000  4.385000000     0.000000000  0.190331176  0.114025086
     4.936500000 -2.627000000  4.385000000     0.101286336  0.000000000  0.114025086
     4.936500000  2.627000000 -4.385000000     0.101286336  0.190331176  0.000000000

  length of vectors
     7.106221658  7.106221658  7.106221658     0.221873110  0.152514400  0.215603522


 FORCES acting on ions
    electron-ion (+dipol)            ewald-force                    non-local-force                 convergence-correction
 -----------------------------------------------------------------------------------------------
   -.132E+02 -.724E+01 0.151E+02   0.169E+02 0.830E+01 -.178E+02   -.276E+01 -.316E+00 0.142E+01   -.272E-02 -.244E-03 0.550E-03
   0.147E+02 -.977E+01 0.152E+02   -.188E+02 0.108E+02 -.157E+02   0.252E+01 -.261E+00 0.389E+00   0.205E-02 -.223E-03 -.297E-03
   0.217E+03 0.133E+03 0.647E+02   -.216E+03 -.126E+03 -.615E+02   -.552E+00 -.732E+01 -.328E+01   -.137E-01 0.203E-03 -.130E-02
   -.612E+02 -.652E+01 -.176E+03   0.630E+02 0.231E+01 0.175E+03   -.203E+01 0.400E+01 0.908E-01   0.125E-01 -.571E-02 -.221E-03
   -.655E+01 0.256E+01 0.131E+03   0.689E+01 -.110E+01 -.145E+03   -.411E+00 -.166E+01 0.123E+02   -.770E-03 -.942E-04 -.240E-02
   -.191E+02 -.340E+02 -.444E+02   0.201E+02 0.335E+02 0.593E+02   -.143E+01 0.745E+00 -.141E+02   -.165E-02 -.259E-03 0.626E-02
   -.421E+02 -.100E+03 -.410E+02   0.394E+02 0.111E+03 0.405E+02   0.595E+00 -.146E+02 0.226E+01   -.483E-02 -.800E-03 0.101E-02
   -.816E+02 0.305E+01 0.312E+02   0.929E+02 -.863E+01 -.352E+02   -.104E+02 0.926E+01 0.643E+01   0.388E-02 -.427E-03 0.115E-02
   -.120E+02 0.995E+00 0.268E+01   0.179E+02 0.471E+01 -.608E+01   -.380E+01 -.900E+01 0.537E+01   0.407E-02 0.114E-03 0.120E-02
   0.277E+02 0.844E+02 -.474E+01   -.359E+02 -.922E+02 0.236E+01   0.676E+01 0.124E+02 0.456E+01   -.504E-02 0.776E-03 0.119E-02
   -.664E+02 -.186E+02 0.214E+02   0.725E+02 0.189E+02 -.173E+02   -.934E+01 -.298E+00 -.738E+01   -.308E-02 -.756E-04 0.206E-02
   0.879E+02 -.346E+02 -.742E+01   -.959E+02 0.360E+02 0.113E+02   0.116E+02 -.168E+01 -.723E+01   0.323E-02 -.108E-03 -.164E-02
   -.131E+02 -.422E+01 -.216E+02   0.120E+02 0.255E+01 0.223E+02   0.103E+01 0.677E+00 0.967E-01   -.748E-03 0.326E-03 0.868E-03
   -.225E+02 -.150E+01 0.121E+02   0.255E+02 -.256E+00 -.122E+02   -.113E+01 0.741E+00 -.750E-01   -.149E-03 0.309E-03 0.254E-02
 -----------------------------------------------------------------------------------------------
   0.936E+01 0.737E+01 -.854E+00   0.284E-13 0.245E-13 0.302E-13   -.935E+01 -.737E+01 0.847E+00   -.703E-02 -.622E-02 0.110E-01
 
 
 POSITION                                       TOTAL-FORCE (eV/Angst)
 -----------------------------------------------------------------------------------
      3.38446      1.31350      3.51414         1.030957      0.832659     -1.242998
      1.55204      3.94050     -0.87086        -1.575135      0.822034     -0.136195
      6.37778      1.61116     -0.71400        -0.335807      0.123675     -0.141416
      4.17220      2.96313     -0.72217        -0.221900     -0.241060     -0.128206
      4.93650      1.31350      3.08967        -0.067085     -0.197637     -1.578042
      0.00000      1.31350      1.29533        -0.418490      0.216662      0.860824
      3.06063     -0.00000      4.38500        -2.071199     -4.123570      1.835733
      1.87587      0.00000      0.00000         0.846312      3.678983      2.445889
      1.87587      2.62700      0.00000         2.115130     -3.292251      1.978158
      7.99713      0.00000      0.00000        -1.433730      4.454181      2.194098
      2.46825      1.31350      2.19250        -3.236609     -0.009966     -3.300161
     -2.46825      1.31350      2.19250         3.628011     -0.269657     -3.374028
      3.38446     -1.31350      5.25586        -0.104845     -0.969056      0.744229
      1.55204      1.31350      0.87086         1.844390     -1.024995     -0.157886
 -----------------------------------------------------------------------------------
    total drift:                               -0.000320     -0.000572      0.004496


--------------------------------------------------------------------------------------------------------



  FREE ENERGIE OF THE ION-ELECTRON SYSTEM (eV)
  ---------------------------------------------------
  free  energy   TOTEN  =       -91.89427789 eV

  energy  without entropy=      -91.72232657  energy(sigma->0) =      -91.80830223
 


--------------------------------------------------------------------------------------------------------


    POTLOK:  cpu time    0.0600: real time    0.0599


--------------------------------------------------------------------------------------------------------


     LOOP+:  cpu time    5.4532: real time    5.4671
    4ORBIT:  cpu time    0.0000: real time    0.0000

 total amount of memory used by VASP MPI-rank0    41410. kBytes
=======================================================================

   base      :      30000. kBytes
   nonlr-proj:       2528. kBytes
   fftplans  :       2795. kBytes
   grid      :       5766. kBytes
   one-center:         31. kBytes
   wavefun   :        290. kBytes
 
  
  
 General timing and accounting informations for this job:
 ========================================================
  
                  Total CPU time used (sec):        6.853
                            User time (sec):        6.795
                          System time (sec):        0.058
                         Elapsed time (sec):        6.982
  
                   Maximum memory used (kb):       67908.
                   Average memory used (kb):           0.
  
                          Minor page faults:        12507
                          Major page faults:            0
                 Voluntary context switches:          286
