 vasp.5.4.4.18Apr17-6-g9f103f2a35 (build Dec 21 2018 14:18:36) complex          
  
 executed on             LinuxIFC date 2022.04.06  16:07:00
 running on   12 total cores
 distrk:  each k-point on   12 cores,    1 groups
 distr:  one band on NCORES_PER_BAND=  12 cores,    1 groups


--------------------------------------------------------------------------------------------------------


 INCAR:
 POTCAR:  PAW_PBE Al 04Jan2001                    
 POTCAR:   PAW_PBE Cu 22Jun2005                   
 POTCAR:   PAW_PBE O 08Apr2002                    
 POTCAR:   PAW_PBE Si 05Jan2001                   
 POTCAR:  PAW_PBE H 15Jun2001                     

 ----------------------------------------------------------------------------- 
|                                                                             |
|           W    W    AA    RRRRR   N    N  II  N    N   GGGG   !!!           |
|           W    W   A  A   R    R  NN   N  II  NN   N  G    G  !!!           |
|           W    W  A    A  R    R  N N  N  II  N N  N  G       !!!           |
|           W WW W  AAAAAA  RRRRR   N  N N  II  N  N N  G  GGG   !            |
|           WW  WW  A    A  R   R   N   NN  II  N   NN  G    G                |
|           W    W  A    A  R    R  N    N  II  N    N   GGGG   !!!           |
|                                                                             |
|      For optimal performance we recommend to set                            |
|        NCORE= 4 - approx SQRT( number of cores)                             |
|      NCORE specifies how many cores store one orbital (NPAR=cpu/NCORE).     |
|      This setting can  greatly improve the performance of VASP for DFT.     |
|      The default,   NCORE=1            might be grossly inefficient         |
|      on modern multi-core architectures or massively parallel machines.     |
|      Do your own testing !!!!                                               |
|      Unfortunately you need to use the default for GW and RPA calculations. |
|      (for HF NCORE is supported but not extensively tested yet)             |
|                                                                             |
 ----------------------------------------------------------------------------- 

 POTCAR:  PAW_PBE Al 04Jan2001                    
   VRHFIN =Al: s2p1                                                             
   LEXCH  = PE                                                                  
   EATOM  =    53.5387 eV,    3.9350 Ry                                         
                                                                                
   TITEL  = PAW_PBE Al 04Jan2001                                                
   LULTRA =        F    use ultrasoft PP ?                                      
   IUNSCR =        1    unscreen: 0-lin 1-nonlin 2-no                           
   RPACOR =    1.500    partial core radius                                     
   POMASS =   26.982; ZVAL   =    3.000    mass and valenz                      
   RCORE  =    1.900    outmost cutoff radius                                   
   RWIGS  =    2.650; RWIGS  =    1.402    wigner-seitz radius (au A)           
   ENMAX  =  240.300; ENMIN  =  180.225 eV                                      
   ICORE  =        2    local potential                                         
   LCOR   =        T    correct aug charges                                     
   LPAW   =        T    paw PP                                                  
   EAUG   =  291.052                                                            
   DEXC   =    -.041                                                            
   RMAX   =    2.974    core radius for proj-oper                               
   RAUG   =    1.300    factor for augmentation sphere                          
   RDEP   =    1.966    radius for radial grids                                 
   QCUT   =   -4.203; QGAM   =    8.405    optimization parameters              
                                                                                
   Description                                                                  
     l     E      TYP  RCUT    TYP  RCUT                                        
     0   .000     23  1.900                                                     
     0   .000     23  1.900                                                     
     1   .000     23  1.900                                                     
     1  1.000     23  1.900                                                     
     2   .000      7  1.900                                                     
  local pseudopotential read in
  partial core-charges read in
  atomic valenz-charges read in
  non local Contribution for L=           0  read in
    real space projection operators read in
  non local Contribution for L=           0  read in
    real space projection operators read in
  non local Contribution for L=           1  read in
    real space projection operators read in
  non local Contribution for L=           1  read in
    real space projection operators read in
    PAW grid and wavefunctions read in
 
   number of l-projection  operators is LMAX  =           4
   number of lm-projection operators is LMMAX =           8
 
 POTCAR:   PAW_PBE Cu 22Jun2005                   
   VRHFIN =Cu: d10 p1                                                           
   LEXCH  = PE                                                                  
   EATOM  =  1390.9808 eV,  102.2342 Ry                                         
                                                                                
   TITEL  = PAW_PBE Cu 22Jun2005                                                
   LULTRA =        F    use ultrasoft PP ?                                      
   IUNSCR =        1    unscreen: 0-lin 1-nonlin 2-no                           
   RPACOR =    2.000    partial core radius                                     
   POMASS =   63.546; ZVAL   =   11.000    mass and valenz                      
   RCORE  =    2.300    outmost cutoff radius                                   
   RWIGS  =    2.200; RWIGS  =    1.164    wigner-seitz radius (au A)           
   ENMAX  =  295.446; ENMIN  =  221.585 eV                                      
   ICORE  =        3    local potential                                         
   LCOR   =        T    correct aug charges                                     
   LPAW   =        T    paw PP                                                  
   EAUG   =  586.980                                                            
   DEXC   =    0.000                                                            
   RMAX   =    2.344    core radius for proj-oper                               
   RAUG   =    1.300    factor for augmentation sphere                          
   RDEP   =    2.302    radius for radial grids                                 
   RDEPT  =    1.771    core radius for aug-charge                              
                                                                                
   Atomic configuration                                                         
    9 entries                                                                   
     n  l   j            E        occ.                                          
     1  0  0.50     -8850.2468   2.0000                                         
     2  0  0.50     -1062.3498   2.0000                                         
     2  1  1.50      -916.8226   6.0000                                         
     3  0  0.50      -114.6929   2.0000                                         
     3  1  1.50       -72.1325   6.0000                                         
     3  2  2.50        -5.0394  10.0000                                         
     4  0  0.50        -4.6097   1.0000                                         
     4  1  0.50        -4.0817   0.0000                                         
     4  3  2.50        -1.3606   0.0000                                         
   Description                                                                  
     l       E           TYP  RCUT    TYP  RCUT                                 
     2     -5.0393973     23  2.200                                             
     2     10.8846608     23  2.200                                             
     0     -4.6097109     23  2.200                                             
     0      8.2520465     23  2.200                                             
     1     -2.7211652     23  2.200                                             
     1     21.7055443     23  2.200                                             
     3      2.7211652     23  2.300                                             
  local pseudopotential read in
  partial core-charges read in
  partial kinetic energy density read in
  atomic valenz-charges read in
  non local Contribution for L=           2  read in
    real space projection operators read in
  non local Contribution for L=           2  read in
    real space projection operators read in
  non local Contribution for L=           0  read in
    real space projection operators read in
  non local Contribution for L=           0  read in
    real space projection operators read in
  non local Contribution for L=           1  read in
    real space projection operators read in
  non local Contribution for L=           1  read in
    real space projection operators read in
    PAW grid and wavefunctions read in
 
   number of l-projection  operators is LMAX  =           6
   number of lm-projection operators is LMMAX =          18
 
 POTCAR:   PAW_PBE O 08Apr2002                    
   VRHFIN =O: s2p4                                                              
   LEXCH  = PE                                                                  
   EATOM  =   432.3788 eV,   31.7789 Ry                                         
                                                                                
   TITEL  = PAW_PBE O 08Apr2002                                                 
   LULTRA =        F    use ultrasoft PP ?                                      
   IUNSCR =        0    unscreen: 0-lin 1-nonlin 2-no                           
   RPACOR =     .000    partial core radius                                     
   POMASS =   16.000; ZVAL   =    6.000    mass and valenz                      
   RCORE  =    1.520    outmost cutoff radius                                   
   RWIGS  =    1.550; RWIGS  =     .820    wigner-seitz radius (au A)           
   ENMAX  =  400.000; ENMIN  =  300.000 eV                                      
   ICORE  =        2    local potential                                         
   LCOR   =        T    correct aug charges                                     
   LPAW   =        T    paw PP                                                  
   EAUG   =  605.392                                                            
   DEXC   =     .000                                                            
   RMAX   =    2.264    core radius for proj-oper                               
   RAUG   =    1.300    factor for augmentation sphere                          
   RDEP   =    1.550    radius for radial grids                                 
   QCUT   =   -5.520; QGAM   =   11.041    optimization parameters              
                                                                                
   Description                                                                  
     l     E      TYP  RCUT    TYP  RCUT                                        
     0   .000     23  1.200                                                     
     0  -.700     23  1.200                                                     
     1   .000     23  1.520                                                     
     1   .600     23  1.520                                                     
     2   .000      7  1.500                                                     
  local pseudopotential read in
  atomic valenz-charges read in
  non local Contribution for L=           0  read in
    real space projection operators read in
  non local Contribution for L=           0  read in
    real space projection operators read in
  non local Contribution for L=           1  read in
    real space projection operators read in
  non local Contribution for L=           1  read in
    real space projection operators read in
    PAW grid and wavefunctions read in
 
   number of l-projection  operators is LMAX  =           4
   number of lm-projection operators is LMMAX =           8
 
 POTCAR:   PAW_PBE Si 05Jan2001                   
   VRHFIN =Si: s2p2                                                             
   LEXCH  = PE                                                                  
   EATOM  =   103.0669 eV,    7.5752 Ry                                         
                                                                                
   TITEL  = PAW_PBE Si 05Jan2001                                                
   LULTRA =        F    use ultrasoft PP ?                                      
   IUNSCR =        1    unscreen: 0-lin 1-nonlin 2-no                           
   RPACOR =    1.500    partial core radius                                     
   POMASS =   28.085; ZVAL   =    4.000    mass and valenz                      
   RCORE  =    1.900    outmost cutoff radius                                   
   RWIGS  =    2.480; RWIGS  =    1.312    wigner-seitz radius (au A)           
   ENMAX  =  245.345; ENMIN  =  184.009 eV                                      
   ICORE  =        2    local potential                                         
   LCOR   =        T    correct aug charges                                     
   LPAW   =        T    paw PP                                                  
   EAUG   =  322.069                                                            
   DEXC   =    -.007                                                            
   RMAX   =    2.944    core radius for proj-oper                               
   RAUG   =    1.300    factor for augmentation sphere                          
   RDEP   =    1.993    radius for radial grids                                 
   QCUT   =   -4.246; QGAM   =    8.493    optimization parameters              
                                                                                
   Description                                                                  
     l     E      TYP  RCUT    TYP  RCUT                                        
     0   .000     23  1.900                                                     
     0   .000     23  1.900                                                     
     1   .000     23  1.900                                                     
     1   .000     23  1.900                                                     
     2   .000      7  1.900                                                     
  local pseudopotential read in
  partial core-charges read in
  atomic valenz-charges read in
  non local Contribution for L=           0  read in
    real space projection operators read in
  non local Contribution for L=           0  read in
    real space projection operators read in
  non local Contribution for L=           1  read in
    real space projection operators read in
  non local Contribution for L=           1  read in
    real space projection operators read in
    PAW grid and wavefunctions read in
 
   number of l-projection  operators is LMAX  =           4
   number of lm-projection operators is LMMAX =           8
 
 POTCAR:  PAW_PBE H 15Jun2001                     
   VRHFIN =H: ultrasoft test                                                    
   LEXCH  = PE                                                                  
   EATOM  =    12.4884 eV,     .9179 Ry                                         
                                                                                
   TITEL  = PAW_PBE H 15Jun2001                                                 
   LULTRA =        F    use ultrasoft PP ?                                      
   IUNSCR =        0    unscreen: 0-lin 1-nonlin 2-no                           
   RPACOR =     .000    partial core radius                                     
   POMASS =    1.000; ZVAL   =    1.000    mass and valenz                      
   RCORE  =    1.100    outmost cutoff radius                                   
   RWIGS  =     .700; RWIGS  =     .370    wigner-seitz radius (au A)           
   ENMAX  =  250.000; ENMIN  =  200.000 eV                                      
   RCLOC  =     .701    cutoff for local pot                                    
   LCOR   =        T    correct aug charges                                     
   LPAW   =        T    paw PP                                                  
   EAUG   =  400.000                                                            
   RMAX   =    2.174    core radius for proj-oper                               
   RAUG   =    1.200    factor for augmentation sphere                          
   RDEP   =    1.112    radius for radial grids                                 
   QCUT   =   -5.749; QGAM   =   11.498    optimization parameters              
                                                                                
   Description                                                                  
     l     E      TYP  RCUT    TYP  RCUT                                        
     0   .000     23  1.100                                                     
     0   .500     23  1.100                                                     
     1  -.300     23  1.100                                                     
  local pseudopotential read in
  atomic valenz-charges read in
  non local Contribution for L=           0  read in
    real space projection operators read in
  non local Contribution for L=           0  read in
    real space projection operators read in
  non local Contribution for L=           1  read in
    real space projection operators read in
    PAW grid and wavefunctions read in
 
   number of l-projection  operators is LMAX  =           3
   number of lm-projection operators is LMMAX =           5
 
 Optimization of the real space projectors (new method)

 maximal supplied QI-value         = 19.84
 optimisation between [QCUT,QGAM] = [ 10.12, 20.44] = [ 28.68,116.96] Ry 
 Optimized for a Real-space Cutoff    1.26 Angstroem

   l    n(q)    QCUT    max X(q) W(low)/X(q) W(high)/X(q)  e(spline) 
   0      8    10.119    13.410    0.28E-04    0.17E-04    0.51E-08
   0      8    10.119   140.052    0.10E-03    0.16E-03    0.42E-07
   1      7    10.119     9.624    0.38E-04    0.42E-05    0.15E-07
   1      7    10.119    53.353    0.23E-03    0.17E-03    0.13E-06
 Optimization of the real space projectors (new method)

 maximal supplied QI-value         = 16.25
 optimisation between [QCUT,QGAM] = [ 10.24, 20.48] = [ 29.35,117.42] Ry 
 Optimized for a Real-space Cutoff    1.55 Angstroem

   l    n(q)    QCUT    max X(q) W(low)/X(q) W(high)/X(q)  e(spline) 
   2      9    10.239     4.610    0.85E-04    0.29E-03    0.14E-06
   2      9    10.239     8.522    0.15E-03    0.50E-03    0.27E-06
   0     10    10.239    51.609    0.45E-04    0.99E-04    0.10E-06
   0     10    10.239    27.747    0.40E-04    0.93E-04    0.97E-07
   1      9    10.239    20.408    0.15E-03    0.78E-05    0.15E-06
   1      9    10.239    13.425    0.13E-03    0.71E-05    0.14E-06
 Optimization of the real space projectors (new method)

 maximal supplied QI-value         = 24.76
 optimisation between [QCUT,QGAM] = [ 10.15, 20.30] = [ 28.85,115.39] Ry 
 Optimized for a Real-space Cutoff    1.51 Angstroem

   l    n(q)    QCUT    max X(q) W(low)/X(q) W(high)/X(q)  e(spline) 
   0      9    10.150     4.192    0.32E-04    0.13E-04    0.13E-06
   0      9    10.150     8.473    0.18E-03    0.20E-03    0.43E-06
   1      9    10.150     2.474    0.32E-04    0.33E-04    0.64E-07
   1      9    10.150     3.912    0.13E-03    0.16E-03    0.33E-06
 Optimization of the real space projectors (new method)

 maximal supplied QI-value         = 19.84
 optimisation between [QCUT,QGAM] = [ 10.12, 20.44] = [ 28.68,116.96] Ry 
 Optimized for a Real-space Cutoff    1.38 Angstroem

   l    n(q)    QCUT    max X(q) W(low)/X(q) W(high)/X(q)  e(spline) 
   0      8    10.119     8.708    0.16E-04    0.67E-05    0.60E-08
   0      8    10.119   106.241    0.56E-04    0.11E-03    0.54E-07
   1      8    10.119     5.901    0.16E-04    0.16E-05    0.22E-07
   1      8    10.119    73.241    0.22E-03    0.17E-03    0.18E-06
 Optimization of the real space projectors (new method)

 maximal supplied QI-value         = 34.20
 optimisation between [QCUT,QGAM] = [  9.92, 20.18] = [ 27.55,114.04] Ry 
 Optimized for a Real-space Cutoff    1.34 Angstroem

   l    n(q)    QCUT    max X(q) W(low)/X(q) W(high)/X(q)  e(spline) 
   0      8     9.919     4.436    0.31E-04    0.59E-04    0.66E-07
   0      8     9.919    16.131    0.16E-03    0.20E-03    0.35E-06
   1      8     9.919     4.654    0.19E-03    0.46E-03    0.40E-06
PAW_PBE Al 04Jan2001                    :
 energy of atom  1       EATOM=  -53.5387
 kinetic energy error for atom=    0.0005 (will be added to EATOM!!)
 PAW_PBE Cu 22Jun2005                   :
 energy of atom  2       EATOM=-1390.9808
 kinetic energy error for atom=    0.0232 (will be added to EATOM!!)
 PAW_PBE O 08Apr2002                    :
 energy of atom  3       EATOM= -432.3788
 kinetic energy error for atom=    0.1156 (will be added to EATOM!!)
 PAW_PBE Si 05Jan2001                   :
 energy of atom  4       EATOM= -103.0669
 kinetic energy error for atom=    0.0012 (will be added to EATOM!!)
PAW_PBE H 15Jun2001                     :
 energy of atom  5       EATOM=  -12.4884
 kinetic energy error for atom=    0.0098 (will be added to EATOM!!)
 
 
 POSCAR: Al Cu O Si H                            
  positions in direct lattice
  velocities in cartesian coordinates
  No initial velocities read in
 exchange correlation table for  LEXCH =        8
   RHO(1)=    0.500       N(1)  =     2000
   RHO(2)=  100.500       N(2)  =     4000
 


--------------------------------------------------------------------------------------------------------


 ion  position               nearest neighbor table
   1  0.418  0.329  0.625-  75 1.61  15 1.61  39 1.61  63 1.61 117 3.02 115 3.17 132 3.17 143 3.20

   2  0.671  0.089  0.625-  76 1.61  16 1.61  40 1.61  64 1.61 116 3.02 117 3.17 130 3.17 141 3.20

   3  0.329  0.418  0.125-  72 1.61  18 1.61  42 1.61  62 1.61 111 3.02 109 3.17 135 3.17 146 3.20

   4  0.418  0.329  0.875-  78 1.61  24 1.61  48 1.61  66 1.61 125 3.02 123 3.17 132 3.17 146 3.20

   5  0.329  0.418  0.375-  81 1.61  33 1.61  57 1.61  71 1.61 122 3.02 120 3.17 135 3.17 143 3.20

   6  0.004  0.250  0.250-  91 1.61  53 1.61  38 1.61  85 1.61 135 3.05 122 3.17 111 3.17 134 3.18

   7  0.250  0.004  0.750-  94 1.61  56 1.61  47 1.61  89 1.61 132 3.05 125 3.17 117 3.17 131 3.18

   8  0.000  0.248  0.500- 106 1.61  99 1.61  22 1.61  29 1.61 143 3.11 141 3.11 116 3.20 122 3.20

   9  0.248  0.000  0.500- 105 1.61 101 1.61  28 1.61  23 1.61 143 3.11 142 3.11 121 3.20 117 3.20

  10  0.586  0.469  0.424- 108 1.88  81 2.24 120 2.76
  11  0.859  0.559  0.348- 108 1.87  58 2.03 126 2.56
  12  0.661  0.695  0.061- 109 1.61 140 1.61
  13  0.305  0.965  0.061- 110 1.61 138 1.61
  14  0.035  0.339  0.061- 111 1.61 139 1.61
  15  0.339  0.305  0.561-   1 1.61 143 1.61
  16  0.695  0.035  0.561-   2 1.61 141 1.61
  17  0.965  0.661  0.561- 112 1.61 142 1.61
  18  0.305  0.339  0.061-   3 1.61 146 1.61
  19  0.035  0.695  0.061- 113 1.61 144 1.61
  20  0.661  0.965  0.061- 114 1.61 145 1.61
  21  0.695  0.661  0.561- 115 1.61 147 1.61
  22  0.965  0.305  0.561- 116 1.61   8 1.61
  23  0.339  0.035  0.561- 117 1.61   9 1.61
  24  0.339  0.305  0.939-   4 1.61 146 1.61
  25  0.695  0.035  0.939- 118 1.61 145 1.61
  26  0.965  0.661  0.939- 119 1.61 144 1.61
  27  0.661  0.695  0.439- 120 1.61 147 1.61
  28  0.305  0.965  0.439- 121 1.61   9 1.61
  29  0.035  0.339  0.439- 122 1.61   8 1.61
  30  0.695  0.661  0.939- 123 1.61 140 1.61
  31  0.965  0.305  0.939- 124 1.61 139 1.61
  32  0.339  0.035  0.939- 125 1.61 138 1.61
  33  0.305  0.339  0.439-   5 1.61 143 1.61
  34  0.035  0.695  0.439- 126 1.61 142 1.61
  35  0.661  0.965  0.439- 127 1.61 141 1.61
  36  0.668  0.691  0.187- 109 1.61 129 1.61
  37  0.309  0.977  0.187- 110 1.61 128 1.61
  38  0.023  0.332  0.187- 111 1.61   6 1.61
  39  0.332  0.309  0.687-   1 1.61 132 1.61
  40  0.691  0.023  0.687-   2 1.61 130 1.61
  41  0.977  0.668  0.687- 112 1.61 131 1.61
  42  0.309  0.332  0.187-   3 1.61 135 1.61
  43  0.023  0.691  0.187- 113 1.61 133 1.61
  44  0.668  0.977  0.187- 114 1.61 134 1.61
  45  0.691  0.668  0.687- 115 1.61 137 1.61
  46  0.977  0.309  0.687- 116 1.61 136 1.61
  47  0.332  0.023  0.687- 117 1.61   7 1.61
  48  0.332  0.309  0.813-   4 1.61 132 1.61
  49  0.691  0.023  0.813- 118 1.61 130 1.61
  50  0.977  0.668  0.813- 119 1.61 131 1.61
  51  0.668  0.691  0.313- 120 1.61 129 1.61
  52  0.309  0.977  0.313- 121 1.61 128 1.61
  53  0.023  0.332  0.313- 122 1.61   6 1.61
  54  0.691  0.668  0.813- 123 1.61 137 1.61
  55  0.977  0.309  0.813- 124 1.61 136 1.61
  56  0.332  0.023  0.813- 125 1.61   7 1.61
  57  0.309  0.332  0.313-   5 1.61 135 1.61
  58  0.023  0.691  0.313- 126 1.61 133 1.61  11 2.03
  59  0.668  0.977  0.313- 127 1.61 134 1.61
  60  0.530  0.765  0.129- 114 1.61 109 1.61
  61  0.235  0.765  0.129- 113 1.61 110 1.61
  62  0.235  0.470  0.129-   3 1.61 111 1.61
  63  0.470  0.235  0.629- 117 1.61   1 1.61
  64  0.765  0.235  0.629- 116 1.61   2 1.61
  65  0.765  0.530  0.629- 115 1.61 112 1.61
  66  0.470  0.235  0.871- 125 1.61   4 1.61
  67  0.765  0.235  0.871- 124 1.61 118 1.61
  68  0.765  0.530  0.871- 123 1.61 119 1.61
  69  0.530  0.765  0.371- 127 1.61 120 1.61
  70  0.235  0.765  0.371- 126 1.61 121 1.61
  71  0.235  0.470  0.371-   5 1.61 122 1.61
  72  0.468  0.531  0.125-   3 1.61 109 1.61
  73  0.469  0.937  0.125- 114 1.61 110 1.61
  74  0.063  0.532  0.125- 113 1.61 111 1.61
  75  0.532  0.469  0.625- 115 1.61   1 1.61
  76  0.531  0.063  0.625- 117 1.61   2 1.61
  77  0.937  0.468  0.625- 116 1.61 112 1.61
  78  0.532  0.469  0.875- 123 1.61   4 1.61
  79  0.531  0.063  0.875- 125 1.61 118 1.61
  80  0.937  0.468  0.875- 124 1.61 119 1.61
  81  0.468  0.531  0.375-   5 1.61 120 1.61  10 2.24
  82  0.469  0.937  0.375- 127 1.61 121 1.61
  83  0.063  0.532  0.375- 126 1.61 122 1.61
  84  0.101  0.899  0.250- 128 1.61 133 1.61
  85  0.101  0.203  0.250- 135 1.61   6 1.61
  86  0.797  0.899  0.250- 129 1.61 134 1.61
  87  0.899  0.101  0.750- 130 1.61 136 1.61
  88  0.899  0.797  0.750- 137 1.61 131 1.61
  89  0.203  0.101  0.750- 132 1.61   7 1.61
  90  0.268  0.134  0.250- 135 1.61 128 1.61
  91  0.866  0.134  0.250-   6 1.61 134 1.61
  92  0.866  0.732  0.250- 129 1.61 133 1.61
  93  0.732  0.866  0.750- 137 1.61 130 1.61
  94  0.134  0.866  0.750-   7 1.61 131 1.61
  95  0.134  0.268  0.750- 132 1.61 136 1.61
  96  0.116  0.884  0.982- 138 1.61 144 1.61
  97  0.116  0.232  0.982- 139 1.61 146 1.61
  98  0.768  0.884  0.982- 140 1.61 145 1.61
  99  0.884  0.116  0.482- 141 1.61   8 1.61
 100  0.884  0.768  0.482- 142 1.61 147 1.61
 101  0.232  0.116  0.482- 143 1.61   9 1.61
 102  0.884  0.116  0.018- 145 1.61 139 1.61
 103  0.884  0.768  0.018- 144 1.61 140 1.61
 104  0.232  0.116  0.018- 146 1.61 138 1.61
 105  0.116  0.884  0.518-   9 1.61 142 1.61
 106  0.116  0.232  0.518-   8 1.61 143 1.61
 107  0.768  0.884  0.518- 147 1.61 141 1.61
 108  0.720  0.452  0.396- 148 0.98  11 1.87  10 1.88
 109  0.582  0.671  0.125-  72 1.61  12 1.61  36 1.61  60 1.61 114 3.02   3 3.17
 110  0.329  0.911  0.125-  73 1.61  13 1.61  37 1.61  61 1.61 113 3.02
 111  0.089  0.418  0.125-  74 1.61  14 1.61  38 1.61  62 1.61   3 3.02   6 3.17
 112  0.911  0.582  0.625-  77 1.61  17 1.61  41 1.61  65 1.61 115 3.02
 113  0.089  0.671  0.125-  74 1.61  19 1.61  43 1.61  61 1.61 110 3.02
 114  0.582  0.911  0.125-  73 1.61  20 1.61  44 1.61  60 1.61 109 3.02
 115  0.671  0.582  0.625-  75 1.61  21 1.61  45 1.61  65 1.61 112 3.02   1 3.17
 116  0.911  0.329  0.625-  77 1.61  22 1.61  46 1.61  64 1.61   2 3.02   8 3.20
 117  0.418  0.089  0.625-  76 1.61  23 1.61  47 1.61  63 1.61   1 3.02   2 3.17   7 3.17   9 3.20

 118  0.671  0.089  0.875-  79 1.61  25 1.61  49 1.61  67 1.61 124 3.02
 119  0.911  0.582  0.875-  80 1.61  26 1.61  50 1.61  68 1.61 123 3.02
 120  0.582  0.671  0.375-  81 1.61  27 1.61  51 1.61  69 1.61  10 2.76 127 3.02   5 3.17
 121  0.329  0.911  0.375-  82 1.61  28 1.61  52 1.61  70 1.61 126 3.02   9 3.20
 122  0.089  0.418  0.375-  83 1.61  29 1.61  53 1.61  71 1.61   5 3.02   6 3.17   8 3.20
 123  0.671  0.582  0.875-  78 1.61  30 1.61  54 1.61  68 1.61 119 3.02   4 3.17
 124  0.911  0.329  0.875-  80 1.61  31 1.61  55 1.61  67 1.61 118 3.02
 125  0.418  0.089  0.875-  79 1.61  32 1.61  56 1.61  66 1.61   4 3.02   7 3.17
 126  0.089  0.671  0.375-  83 1.61  34 1.61  58 1.61  70 1.61  11 2.56 121 3.02
 127  0.582  0.911  0.375-  82 1.61  35 1.61  59 1.61  69 1.61 120 3.02
 128  0.247  0.996  0.250-  90 1.61  52 1.61  37 1.61  84 1.61 133 3.05
 129  0.750  0.753  0.250-  92 1.61  51 1.61  36 1.61  86 1.61 134 3.05
 130  0.753  0.004  0.750-  93 1.61  49 1.61  40 1.61  87 1.61 136 3.05   2 3.17
 131  0.996  0.750  0.750-  94 1.61  50 1.61  41 1.61  88 1.61 137 3.05   7 3.18
 132  0.250  0.247  0.750-  95 1.61  48 1.61  39 1.61  89 1.61   7 3.05   4 3.17   1 3.17
 133  0.004  0.753  0.250-  92 1.61  58 1.61  43 1.61  84 1.61 128 3.05
 134  0.750  0.996  0.250-  91 1.61  59 1.61  44 1.61  86 1.61 129 3.05   6 3.18
 135  0.247  0.250  0.250-  90 1.61  57 1.61  42 1.61  85 1.61   6 3.05   5 3.17   3 3.17
 136  0.996  0.247  0.750-  95 1.61  55 1.61  46 1.61  87 1.61 130 3.05
 137  0.753  0.750  0.750-  93 1.61  54 1.61  45 1.61  88 1.61 131 3.05
 138  0.248  0.000  0.000-  96 1.61 104 1.61  13 1.61  32 1.61 146 3.11 144 3.11
 139  0.000  0.248  0.000-  97 1.61 102 1.61  31 1.61  14 1.61 146 3.11 145 3.11
 140  0.752  0.752  0.000-  98 1.61 103 1.61  12 1.61  30 1.61 144 3.11 145 3.11
 141  0.752  0.000  0.500-  99 1.61 107 1.61  16 1.61  35 1.61 147 3.11   8 3.11   2 3.20
 142  0.000  0.752  0.500- 100 1.61 105 1.61  34 1.61  17 1.61 147 3.11   9 3.11
 143  0.248  0.248  0.500- 101 1.61 106 1.61  15 1.61  33 1.61   8 3.11   9 3.11   1 3.20   5 3.20

 144  0.000  0.752  0.000- 103 1.61  96 1.61  19 1.61  26 1.61 140 3.11 138 3.11
 145  0.752  0.000  0.000- 102 1.61  98 1.61  25 1.61  20 1.61 140 3.11 139 3.11
 146  0.248  0.248  0.000- 104 1.61  97 1.61  18 1.61  24 1.61 138 3.11 139 3.11   3 3.20   4 3.20

 147  0.752  0.752  0.500- 107 1.61 100 1.61  21 1.61  27 1.61 141 3.11 142 3.11
 148  0.708  0.370  0.399- 108 0.98
 

IMPORTANT INFORMATION: All symmetrisations will be switched off!
NOSYMM: (Re-)initialisation of all symmetry stuff for point group C_1.

 
 
 KPOINTS: Automatic                               

Automatic generation of k-mesh.
Space group operators:
 irot       det(A)        alpha          n_x          n_y          n_z        tau_x        tau_y        tau_z
    1     1.000000     0.000000     1.000000     0.000000     0.000000     0.000000     0.000000     0.000000
 
 Subroutine IBZKPT returns following result:
 ===========================================
 
 Found      1 irreducible k-points:
 
 Following reciprocal coordinates:
            Coordinates               Weight
  0.000000  0.000000  0.000000      1.000000
 
 Following cartesian coordinates:
            Coordinates               Weight
  0.000000  0.000000  0.000000      1.000000
 


--------------------------------------------------------------------------------------------------------




 Dimension of arrays:
   k-points           NKPTS =      1   k-points in BZ     NKDIM =      1   number of bands    NBANDS=    472
   number of dos      NEDOS =    301   number of ions     NIONS =    148
   non local maximal  LDIM  =      6   non local SUM 2l+1 LMDIM =     18
   total plane-waves  NPLWV = 987840
   max r-space proj   IRMAX =   5525   max aug-charges    IRDMAX=  13760
   dimension x,y,z NGX =    84 NGY =   84 NGZ =  140
   dimension x,y,z NGXF=   168 NGYF=  168 NGZF=  280
   support grid    NGXF=   168 NGYF=  168 NGZF=  280
   ions per type =               9   2  97  39   1
   NGX,Y,Z   is equivalent  to a cutoff of  11.13, 11.13, 11.20 a.u.
   NGXF,Y,Z  is equivalent  to a cutoff of  22.26, 22.26, 22.39 a.u.

 SYSTEM =  ZEOLITE_AFG_energy_PRO                  
 POSCAR =  Al Cu O Si H                            

 Startparameter for this run:
   NWRITE =      2    write-flag & timer
   PREC   = accura    normal or accurate (medium, high low for compatibility)
   ISTART =      0    job   : 0-new  1-cont  2-samecut
   ICHARG =      2    charge: 1-file 2-atom 10-const
   ISPIN  =      1    spin polarized calculation?
   LNONCOLLINEAR =      F non collinear calculations
   LSORBIT =      F    spin-orbit coupling
   INIWAV =      1    electr: 0-lowe 1-rand  2-diag
   LASPH  =      F    aspherical Exc in radial PAW
   METAGGA=      F    non-selfconsistent MetaGGA calc.

 Electronic Relaxation 1
   ENCUT  =  400.0 eV  29.40 Ry    5.42 a.u.  20.46 20.46 33.90*2*pi/ulx,y,z
   ENINI  =  400.0     initial cutoff
   ENAUG  =  605.4 eV  augmentation charge cutoff
   NELM   =    100;   NELMIN=  5; NELMDL=-12     # of ELM steps 
   EDIFF  = 0.1E-05   stopping-criterion for ELM
   LREAL  =      T    real-space projection
   NLSPLINE    = F    spline interpolate recip. space projectors
   LCOMPAT=      F    compatible to vasp.4.4
   GGA_COMPAT  = T    GGA compatible to vasp.4.4-vasp.4.6
   LMAXPAW     = -100 max onsite density
   LMAXMIX     =    2 max onsite mixed and CHGCAR
   VOSKOWN=      0    Vosko Wilk Nusair interpolation
   ROPT   =   -0.00025  -0.00025  -0.00025  -0.00025
   ROPT   =   -0.00025
 Ionic relaxation
   EDIFFG = -.5E-02   stopping-criterion for IOM
   NSW    =      0    number of steps for IOM
   NBLOCK =      1;   KBLOCK =      1    inner block; outer block 
   IBRION =     -1    ionic relax: 0-MD 1-quasi-New 2-CG
   NFREE  =      2    steps in history (QN), initial steepest desc. (CG)
   ISIF   =      2    stress and relaxation
   IWAVPR =     10    prediction:  0-non 1-charg 2-wave 3-comb
   ISYM   =      0    0-nonsym 1-usesym 2-fastsym
   LCORR  =      T    Harris-Foulkes like correction to forces

   POTIM  = 0.0150    time-step for ionic-motion
   TEIN   =    0.0    initial temperature
   TEBEG  =    0.0;   TEEND  =   0.0 temperature during run
   SMASS  =  -3.00    Nose mass-parameter (am)
   estimated Nose-frequenzy (Omega)   =  0.10E-29 period in steps =****** mass=  -0.360E-26a.u.
   SCALEE = 1.0000    scale energy and forces
   NPACO  =    256;   APACO  = 16.0  distance and # of slots for P.C.
   PSTRESS=    0.0 pullay stress

  Mass of Ions in am
   POMASS =  26.98 63.55 16.00 28.09  1.00
  Ionic Valenz
   ZVAL   =   3.00 11.00  6.00  4.00  1.00
  Atomic Wigner-Seitz radii
   RWIGS  =  -1.00 -1.00 -1.00 -1.00 -1.00
  virtual crystal weights 
   VCA    =   1.00  1.00  1.00  1.00  1.00
   NELECT =     788.0000    total number of electrons
   NUPDOWN=      -1.0000    fix difference up-down

 DOS related values:
   EMIN   =  10.00;   EMAX   =-10.00  energy-range for DOS
   EFERMI =   0.00
   ISMEAR =     0;   SIGMA  =   0.20  broadening in eV -4-tet -1-fermi 0-gaus

 Electronic relaxation 2 (details)
   IALGO  =     48    algorithm
   LDIAG  =      T    sub-space diagonalisation (order eigenvalues)
   LSUBROT=      F    optimize rotation matrix (better conditioning)
   TURBO    =      0    0=normal 1=particle mesh
   IRESTART =      0    0=no restart 2=restart with 2 vectors
   NREBOOT  =      0    no. of reboots
   NMIN     =      0    reboot dimension
   EREF     =   0.00    reference energy to select bands
   IMIX   =      4    mixing-type and parameters
     AMIX     =   0.40;   BMIX     =  1.00
     AMIX_MAG =   1.60;   BMIX_MAG =  1.00
     AMIN     =   0.10
     WC   =   100.;   INIMIX=   1;  MIXPRE=   1;  MAXMIX= -45

 Intra band minimization:
   WEIMIN = 0.0000     energy-eigenvalue tresh-hold
   EBREAK =  0.53E-09  absolut break condition
   DEPER  =   0.30     relativ break condition  

   TIME   =   0.40     timestep for ELM

  volume/ion in A,a.u.               =      19.15       129.26
  Fermi-wavevector in a.u.,A,eV,Ry     =   1.068429  2.019039 15.531613  1.141541
  Thomas-Fermi vector in A             =   2.204077
 
 Write flags
   LWAVE        =      F    write WAVECAR
   LDOWNSAMPLE  =      F    k-point downsampling of WAVECAR
   LCHARG       =      F    write CHGCAR
   LVTOT        =      F    write LOCPOT, total local potential
   LVHAR        =      F    write LOCPOT, Hartree potential only
   LELF         =      F    write electronic localiz. function (ELF)
   LORBIT       =      0    0 simple, 1 ext, 2 COOP (PROOUT), +10 PAW based schemes


 Dipole corrections
   LMONO  =      F    monopole corrections only (constant potential shift)
   LDIPOL =      F    correct potential (dipole corrections)
   IDIPOL =      0    1-x, 2-y, 3-z, 4-all directions 
   EPSILON=  1.0000000 bulk dielectric constant

 Exchange correlation treatment:
   GGA     =    PE    GGA type
   LEXCH   =     8    internal setting for exchange type
   VOSKOWN=      0    Vosko Wilk Nusair interpolation
   LHFCALC =     F    Hartree Fock is set to
   LHFONE  =     F    Hartree Fock one center treatment
   AEXX    =    0.0000 exact exchange contribution

 Linear response parameters
   LEPSILON=     F    determine dielectric tensor
   LRPA    =     F    only Hartree local field effects (RPA)
   LNABLA  =     F    use nabla operator in PAW spheres
   LVEL    =     F    velocity operator in full k-point grid
   LINTERFAST=   F  fast interpolation
   KINTER  =     0    interpolate to denser k-point grid
   CSHIFT  =0.1000    complex shift for real part using Kramers Kronig
   OMEGAMAX=  -1.0    maximum frequency
   DEG_THRESHOLD= 0.2000000E-02 threshold for treating states as degnerate
   RTIME   =   -0.100 relaxation time in fs
  (WPLASMAI=    0.000 imaginary part of plasma frequency in eV, 0.658/RTIME)
   DFIELD  = 0.0000000 0.0000000 0.0000000 field for delta impulse in time
 
 Orbital magnetization related:
   ORBITALMAG=     F  switch on orbital magnetization
   LCHIMAG   =     F  perturbation theory with respect to B field
   DQ        =  0.001000  dq finite difference perturbation B field
   LLRAUG    =     F  two centre corrections for induced B field



--------------------------------------------------------------------------------------------------------


 Static calculation
 charge density and potential will be updated during run
 non-spin polarized calculation
 RMM-DIIS sequential band-by-band
 perform sub-space diagonalisation
    before iterative eigenvector-optimisation
 modified Broyden-mixing scheme, WC =      100.0
 initial mixing is a Kerker type mixing with AMIX =  0.4000 and BMIX =      1.0000
 Hartree-type preconditioning will be used
 using additional bands           78
 real space projection scheme for non local part
 use partial core corrections
 calculate Harris-corrections to forces 
   (improved forces if not selfconsistent)
 use gradient corrections 
 use of overlap-Matrix (Vanderbilt PP)
 Gauss-broadening in eV      SIGMA  =   0.20


--------------------------------------------------------------------------------------------------------


  energy-cutoff  :      400.00
  volume of cell :     2834.74
      direct lattice vectors                 reciprocal lattice vectors
     6.274000000-10.866886767  0.000000000     0.079693975 -0.046011338  0.000000000
     6.274000000 10.866886767  0.000000000     0.079693975  0.046011338  0.000000000
     0.000000000  0.000000000 20.789000000     0.000000000  0.000000000  0.048102362

  length of vectors
    12.548000000 12.548000000 20.789000000     0.092022676  0.092022676  0.048102362


 
 k-points in units of 2pi/SCALE and weight: Automatic                               
   0.00000000  0.00000000  0.00000000       1.000
 
 k-points in reciprocal lattice and weights: Automatic                               
   0.00000000  0.00000000  0.00000000       1.000
 
 position of ions in fractional coordinates (direct lattice) 
   0.41830000  0.32940000  0.62540000
   0.67060000  0.08890000  0.62540000
   0.32940000  0.41830000  0.12540000
   0.41830000  0.32940000  0.87460000
   0.32940000  0.41830000  0.37460000
   0.00350000  0.25010000  0.25000000
   0.25010000  0.00350000  0.75000000
   0.00000000  0.24780000  0.50000000
   0.24780000  0.00000000  0.50000000
   0.58628211  0.46906734  0.42421019
   0.85858878  0.55909759  0.34779852
   0.66080000  0.69530000  0.06060000
   0.30470000  0.96550000  0.06060000
   0.03450000  0.33920000  0.06060000
   0.33920000  0.30470000  0.56060000
   0.69530000  0.03450000  0.56060000
   0.96550000  0.66080000  0.56060000
   0.30470000  0.33920000  0.06060000
   0.03450000  0.69530000  0.06060000
   0.66080000  0.96550000  0.06060000
   0.69530000  0.66080000  0.56060000
   0.96550000  0.30470000  0.56060000
   0.33920000  0.03450000  0.56060000
   0.33920000  0.30470000  0.93940000
   0.69530000  0.03450000  0.93940000
   0.96550000  0.66080000  0.93940000
   0.66080000  0.69530000  0.43940000
   0.30470000  0.96550000  0.43940000
   0.03450000  0.33920000  0.43940000
   0.69530000  0.66080000  0.93940000
   0.96550000  0.30470000  0.93940000
   0.33920000  0.03450000  0.93940000
   0.30470000  0.33920000  0.43940000
   0.03450000  0.69530000  0.43940000
   0.66080000  0.96550000  0.43940000
   0.66800000  0.69120000  0.18680000
   0.30880000  0.97680000  0.18680000
   0.02320000  0.33200000  0.18680000
   0.33200000  0.30880000  0.68680000
   0.69120000  0.02320000  0.68680000
   0.97680000  0.66800000  0.68680000
   0.30880000  0.33200000  0.18680000
   0.02320000  0.69120000  0.18680000
   0.66800000  0.97680000  0.18680000
   0.69120000  0.66800000  0.68680000
   0.97680000  0.30880000  0.68680000
   0.33200000  0.02320000  0.68680000
   0.33200000  0.30880000  0.81320000
   0.69120000  0.02320000  0.81320000
   0.97680000  0.66800000  0.81320000
   0.66800000  0.69120000  0.31320000
   0.30880000  0.97680000  0.31320000
   0.02320000  0.33200000  0.31320000
   0.69120000  0.66800000  0.81320000
   0.97680000  0.30880000  0.81320000
   0.33200000  0.02320000  0.81320000
   0.30880000  0.33200000  0.31320000
   0.02320000  0.69120000  0.31320000
   0.66800000  0.97680000  0.31320000
   0.53030000  0.76520000  0.12880000
   0.23480000  0.76510000  0.12880000
   0.23490000  0.46970000  0.12880000
   0.46970000  0.23480000  0.62880000
   0.76520000  0.23490000  0.62880000
   0.76510000  0.53030000  0.62880000
   0.46970000  0.23480000  0.87120000
   0.76520000  0.23490000  0.87120000
   0.76510000  0.53030000  0.87120000
   0.53030000  0.76520000  0.37120000
   0.23480000  0.76510000  0.37120000
   0.23490000  0.46970000  0.37120000
   0.46850000  0.53140000  0.12530000
   0.46860000  0.93710000  0.12530000
   0.06290000  0.53150000  0.12530000
   0.53150000  0.46860000  0.62530000
   0.53140000  0.06290000  0.62530000
   0.93710000  0.46850000  0.62530000
   0.53150000  0.46860000  0.87470000
   0.53140000  0.06290000  0.87470000
   0.93710000  0.46850000  0.87470000
   0.46850000  0.53140000  0.37470000
   0.46860000  0.93710000  0.37470000
   0.06290000  0.53150000  0.37470000
   0.10130000  0.89870000  0.25000000
   0.10130000  0.20260000  0.25000000
   0.79740000  0.89870000  0.25000000
   0.89870000  0.10130000  0.75000000
   0.89870000  0.79740000  0.75000000
   0.20260000  0.10130000  0.75000000
   0.26840000  0.13420000  0.25000000
   0.86580000  0.13420000  0.25000000
   0.86580000  0.73160000  0.25000000
   0.73160000  0.86580000  0.75000000
   0.13420000  0.86580000  0.75000000
   0.13420000  0.26840000  0.75000000
   0.11590000  0.88420000  0.98190000
   0.11580000  0.23170000  0.98190000
   0.76830000  0.88410000  0.98190000
   0.88410000  0.11580000  0.48190000
   0.88420000  0.76830000  0.48190000
   0.23170000  0.11590000  0.48190000
   0.88410000  0.11580000  0.01810000
   0.88420000  0.76830000  0.01810000
   0.23170000  0.11590000  0.01810000
   0.11590000  0.88420000  0.51810000
   0.11580000  0.23170000  0.51810000
   0.76830000  0.88410000  0.51810000
   0.71960558  0.45217994  0.39579651
   0.58170000  0.67060000  0.12540000
   0.32940000  0.91110000  0.12540000
   0.08890000  0.41830000  0.12540000
   0.91110000  0.58170000  0.62540000
   0.08890000  0.67060000  0.12540000
   0.58170000  0.91110000  0.12540000
   0.67060000  0.58170000  0.62540000
   0.91110000  0.32940000  0.62540000
   0.41830000  0.08890000  0.62540000
   0.67060000  0.08890000  0.87460000
   0.91110000  0.58170000  0.87460000
   0.58170000  0.67060000  0.37460000
   0.32940000  0.91110000  0.37460000
   0.08890000  0.41830000  0.37460000
   0.67060000  0.58170000  0.87460000
   0.91110000  0.32940000  0.87460000
   0.41830000  0.08890000  0.87460000
   0.08890000  0.67060000  0.37460000
   0.58170000  0.91110000  0.37460000
   0.24660000  0.99650000  0.25000000
   0.74990000  0.75340000  0.25000000
   0.75340000  0.00350000  0.75000000
   0.99650000  0.74990000  0.75000000
   0.25010000  0.24660000  0.75000000
   0.00350000  0.75340000  0.25000000
   0.74990000  0.99650000  0.25000000
   0.24660000  0.25010000  0.25000000
   0.99650000  0.24660000  0.75000000
   0.75340000  0.74990000  0.75000000
   0.24780000  0.00000000  0.00000000
   0.00000000  0.24780000  0.00000000
   0.75220000  0.75220000  0.00000000
   0.75220000  0.00000000  0.50000000
   0.00000000  0.75220000  0.50000000
   0.24780000  0.24780000  0.50000000
   0.00000000  0.75220000  0.00000000
   0.75220000  0.00000000  0.00000000
   0.24780000  0.24780000  0.00000000
   0.75220000  0.75220000  0.50000000
   0.70842755  0.36970357  0.39942340
 
 position of ions in cartesian coordinates  (Angst):
   4.69106980 -0.96606623 13.00144060
   4.76510300 -6.32126803 13.00144060
   4.69106980  0.96606623  2.60694060
   4.69106980 -0.96606623 18.18205940
   4.69106980  0.96606623  7.78755940
   1.59108640  2.67977428  5.19725000
   1.59108640 -2.67977428 15.59175000
   1.55469720  2.69281454 10.39450000
   1.55469720 -2.69281454 10.39450000
   6.62126242 -1.27375968  8.81890564
   8.89456427 -3.25453687  7.23038342
   8.50817140  0.37490759  1.25981340
   7.96923480  7.18083878  1.25981340
   2.34459380  3.31114040  1.25981340
   4.03982860 -0.37490759 11.65431340
   4.57876520 -7.18083878 11.65431340
  10.20340620 -3.31114040 11.65431340
   4.03982860  0.37490759  1.25981340
   4.57876520  7.18083878  1.25981340
  10.20340620  3.31114040  1.25981340
   8.50817140 -0.37490759 11.65431340
   7.96923480 -7.18083878 11.65431340
   2.34459380 -3.31114040 11.65431340
   4.03982860 -0.37490759 19.52918660
   4.57876520 -7.18083878 19.52918660
  10.20340620 -3.31114040 19.52918660
   8.50817140  0.37490759  9.13468660
   7.96923480  7.18083878  9.13468660
   2.34459380  3.31114040  9.13468660
   8.50817140 -0.37490759 19.52918660
   7.96923480 -7.18083878 19.52918660
   2.34459380 -3.31114040 19.52918660
   4.03982860  0.37490759  9.13468660
   4.57876520  7.18083878  9.13468660
  10.20340620  3.31114040  9.13468660
   8.52762080  0.25211177  3.88338520
   8.06585440  7.25908036  3.88338520
   2.22852480  3.35569463  3.88338520
   4.02037920 -0.25211177 14.27788520
   4.48214560 -7.25908036 14.27788520
  10.31947520 -3.35569463 14.27788520
   4.02037920  0.25211177  3.88338520
   4.48214560  7.25908036  3.88338520
  10.31947520  3.35569463  3.88338520
   8.52762080 -0.25211177 14.27788520
   8.06585440 -7.25908036 14.27788520
   2.22852480 -3.35569463 14.27788520
   4.02037920 -0.25211177 16.90561480
   4.48214560 -7.25908036 16.90561480
  10.31947520 -3.35569463 16.90561480
   8.52762080  0.25211177  6.51111480
   8.06585440  7.25908036  6.51111480
   2.22852480  3.35569463  6.51111480
   8.52762080 -0.25211177 16.90561480
   8.06585440 -7.25908036 16.90561480
   2.22852480 -3.35569463 16.90561480
   4.02037920  0.25211177  6.51111480
   4.48214560  7.25908036  6.51111480
  10.31947520  3.35569463  6.51111480
   8.12796700  2.55263170  2.67762320
   6.27337260  5.76271005  2.67762320
   4.42066040  2.55154501  2.67762320
   4.42003300 -2.55263170 13.07212320
   6.27462740 -5.76271005 13.07212320
   8.12733960 -2.55154501 13.07212320
   4.42003300 -2.55263170 18.11137680
   6.27462740 -5.76271005 18.11137680
   8.12733960 -2.55154501 18.11137680
   8.12796700  2.55263170  7.71687680
   6.27337260  5.76271005  7.71687680
   4.42066040  2.55154501  7.71687680
   6.27337260  0.68352718  2.60486170
   8.81936180  5.09113645  2.60486170
   3.72926560  5.09222314  2.60486170
   6.27462740 -0.68352718 12.99936170
   3.72863820 -5.09113645 12.99936170
   8.81873440 -5.09222314 12.99936170
   6.27462740 -0.68352718 18.18413830
   3.72863820 -5.09113645 18.18413830
   8.81873440 -5.09222314 18.18413830
   6.27337260  0.68352718  7.78963830
   8.81936180  5.09113645  7.78963830
   3.72926560  5.09222314  7.78963830
   6.27400000  8.66525551  5.19725000
   1.90666860  1.10081563  5.19725000
  10.64133140  1.10081563  5.19725000
   6.27400000 -8.66525551 15.59175000
  10.64133140 -1.10081563 15.59175000
   1.90666860 -1.10081563 15.59175000
   2.52591240 -1.45833620  5.19725000
   6.27400000 -7.95021436  5.19725000
  10.02208760 -1.45833620  5.19725000
  10.02208760  1.45833620 15.59175000
   6.27400000  7.95021436 15.59175000
   2.52591240  1.45833620 15.59175000
   6.27462740  8.34902910 20.41271910
   2.18021500  1.25947218 20.41271910
  10.36715760  1.25838549 20.41271910
   6.27337260 -8.34902910 10.01821910
  10.36778500 -1.25947218 10.01821910
   2.18084240 -1.25838549 10.01821910
   6.27337260 -8.34902910  0.37628090
  10.36778500 -1.25947218  0.37628090
   2.18084240 -1.25838549  0.37628090
   6.27462740  8.34902910 10.77078090
   2.18021500  1.25947218 10.77078090
  10.36715760  1.25838549 10.77078090
   7.35178239 -2.90608411  8.22821372
   7.85693020  0.96606623  2.60694060
   7.78289700  6.32126803  2.60694060
   3.18217280  3.57955250  2.60694060
   9.36582720 -3.57955250 13.00144060
   4.76510300  6.32126803  2.60694060
   9.36582720  3.57955250  2.60694060
   7.85693020 -0.96606623 13.00144060
   7.78289700 -6.32126803 13.00144060
   3.18217280 -3.57955250 13.00144060
   4.76510300 -6.32126803 18.18205940
   9.36582720 -3.57955250 18.18205940
   7.85693020  0.96606623  7.78755940
   7.78289700  6.32126803  7.78755940
   3.18217280  3.57955250  7.78755940
   7.85693020 -0.96606623 18.18205940
   7.78289700 -6.32126803 18.18205940
   3.18217280 -3.57955250 18.18205940
   4.76510300  6.32126803  7.78755940
   9.36582720  3.57955250  7.78755940
   7.79920940  8.14907839  5.19725000
   9.43170420  0.03803410  5.19725000
   4.74879060 -8.14907839 15.59175000
  10.95691360 -2.67977428 15.59175000
   3.11629580 -0.03803410 15.59175000
   4.74879060  8.14907839  5.19725000
  10.95691360  2.67977428  5.19725000
   3.11629580  0.03803410  5.19725000
   7.79920940 -8.14907839 15.59175000
   9.43170420 -0.03803410 15.59175000
   1.55469720 -2.69281454  0.00000000
   1.55469720  2.69281454  0.00000000
   9.43860560  0.00000000  0.00000000
   4.71930280 -8.17407223 10.39450000
   4.71930280  8.17407223 10.39450000
   3.10939440  0.00000000 10.39450000
   4.71930280  8.17407223  0.00000000
   4.71930280 -8.17407223  0.00000000
   3.10939440  0.00000000  0.00000000
   9.43860560  0.00000000 10.39450000
   6.76419465 -3.68087512  8.30361308
 


--------------------------------------------------------------------------------------------------------


 k-point  1 :   0.0000 0.0000 0.0000  plane waves:   51577

 maximum and minimum number of plane-waves per node :      4300     4296

 maximum number of plane-waves:     51577
 maximum index in each direction: 
   IXMAX=   20   IYMAX=   20   IZMAX=   33
   IXMIN=  -20   IYMIN=  -20   IZMIN=  -33


 real space projection operators:
  total allocation   :      41804.20 KBytes
  max/ min on nodes  :       3531.70       3436.91


 parallel 3D FFT for wavefunctions:
    minimum data exchange during FFTs selected (reduces bandwidth)
 parallel 3D FFT for charge:
    minimum data exchange during FFTs selected (reduces bandwidth)


 total amount of memory used by VASP MPI-rank0   162520. kBytes
=======================================================================

   base      :      30000. kBytes
   nonlr-proj:      18132. kBytes
   fftplans  :      24655. kBytes
   grid      :      56288. kBytes
   one-center:        202. kBytes
   wavefun   :      33243. kBytes
 
     INWAV:  cpu time    0.0000: real time    0.0001
 Broyden mixing: mesh for mixing (old mesh)
   NGX = 41   NGY = 41   NGZ = 67
  (NGX  =168   NGY  =168   NGZ  =280)
  gives a total of 112627 points

 initial charge density was supplied:
 charge density of overlapping atoms calculated
 number of electron     788.0000000 magnetization 
 keeping initial charge density in first step


--------------------------------------------------------------------------------------------------------


 Maximum index for non-local projection operator          457
 Maximum index for augmentation-charges         1162 (set IRDMAX)


--------------------------------------------------------------------------------------------------------


 First call to EWALD:  gamma=   0.125
 Maximum number of real-space cells 3x 3x 2
 Maximum number of reciprocal cells 2x 2x 4

    FEWALD:  cpu time    0.1170: real time    0.1168


--------------------------------------- Iteration      1(   1)  ---------------------------------------


    POTLOK:  cpu time    0.8019: real time    0.8052
    SETDIJ:  cpu time    0.0340: real time    0.0348
    EDDIAG:  cpu time    3.1965: real time    3.2822
  RMM-DIIS:  cpu time    5.2122: real time    5.2132
    ORTHCH:  cpu time    0.6329: real time    0.6336
       DOS:  cpu time    0.0020: real time    0.0020
    --------------------------------------------
      LOOP:  cpu time    9.8795: real time    9.9710

 eigenvalue-minimisations  :   472
 total energy-change (2. order) : 0.1155636E+05  (-0.2613643E+05)
 number of electron     788.0000000 magnetization 
 augmentation part      788.0000000 magnetization 

 Free energy of the ion-electron system (eV)
  ---------------------------------------------------
  alpha Z        PSCENC =       750.43982500
  Ewald energy   TEWEN  =    -12862.08648222
  -Hartree energ DENC   =    -31852.97851430
  -exchange      EXHF   =         0.00000000
  -V(xc)+E(xc)   XCENC  =      2219.61267172
  PAW double counting   =     27925.15455194   -27342.52894715
  entropy T*S    EENTRO =        -1.14150787
  eigenvalues    EBANDS =      3494.55838820
  atomic energy  EATOM  =     49225.33142032
  Solvation  Ediel_sol  =         0.00000000
  ---------------------------------------------------
  free energy    TOTEN  =     11556.36140564 eV

  energy without entropy =    11557.50291351  energy(sigma->0) =    11556.93215957


--------------------------------------------------------------------------------------------------------




--------------------------------------- Iteration      1(   2)  ---------------------------------------


    EDDIAG:  cpu time    2.8016: real time    2.8025
  RMM-DIIS:  cpu time    5.2192: real time    5.2198
    ORTHCH:  cpu time    0.6329: real time    0.6339
       DOS:  cpu time    0.0030: real time    0.0020
    --------------------------------------------
      LOOP:  cpu time    8.6567: real time    8.6582

 eigenvalue-minimisations  :   472
 total energy-change (2. order) :-0.7305309E+04  (-0.8683538E+04)
 number of electron     788.0000000 magnetization 
 augmentation part      788.0000000 magnetization 

 Free energy of the ion-electron system (eV)
  ---------------------------------------------------
  alpha Z        PSCENC =       750.43982500
  Ewald energy   TEWEN  =    -12862.08648222
  -Hartree energ DENC   =    -31852.97851430
  -exchange      EXHF   =         0.00000000
  -V(xc)+E(xc)   XCENC  =      2219.61267172
  PAW double counting   =     27925.15455194   -27342.52894715
  entropy T*S    EENTRO =        -0.52661486
  eigenvalues    EBANDS =     -3811.36507404
  atomic energy  EATOM  =     49225.33142032
  Solvation  Ediel_sol  =         0.00000000
  ---------------------------------------------------
  free energy    TOTEN  =      4251.05283641 eV

  energy without entropy =     4251.57945126  energy(sigma->0) =     4251.31614384


--------------------------------------------------------------------------------------------------------




--------------------------------------- Iteration      1(   3)  ---------------------------------------


    EDDIAG:  cpu time    2.7786: real time    2.7791
  RMM-DIIS:  cpu time    5.2112: real time    5.2123
    ORTHCH:  cpu time    0.6339: real time    0.6337
       DOS:  cpu time    0.0020: real time    0.0020
    --------------------------------------------
      LOOP:  cpu time    8.6257: real time    8.6271

 eigenvalue-minimisations  :   472
 total energy-change (2. order) :-0.2964916E+04  (-0.3546087E+04)
 number of electron     788.0000000 magnetization 
 augmentation part      788.0000000 magnetization 

 Free energy of the ion-electron system (eV)
  ---------------------------------------------------
  alpha Z        PSCENC =       750.43982500
  Ewald energy   TEWEN  =    -12862.08648222
  -Hartree energ DENC   =    -31852.97851430
  -exchange      EXHF   =         0.00000000
  -V(xc)+E(xc)   XCENC  =      2219.61267172
  PAW double counting   =     27925.15455194   -27342.52894715
  entropy T*S    EENTRO =        -0.57719374
  eigenvalues    EBANDS =     -6776.23027715
  atomic energy  EATOM  =     49225.33142032
  Solvation  Ediel_sol  =         0.00000000
  ---------------------------------------------------
  free energy    TOTEN  =      1286.13705442 eV

  energy without entropy =     1286.71424816  energy(sigma->0) =     1286.42565129


--------------------------------------------------------------------------------------------------------




--------------------------------------- Iteration      1(   4)  ---------------------------------------


    EDDIAG:  cpu time    3.1625: real time    3.2912
  RMM-DIIS:  cpu time    5.5652: real time    5.5855
    ORTHCH:  cpu time    0.6359: real time    0.6363
       DOS:  cpu time    0.0020: real time    0.0020
    --------------------------------------------
      LOOP:  cpu time    9.3656: real time    9.5149

 eigenvalue-minimisations  :   472
 total energy-change (2. order) :-0.1385485E+04  (-0.1254645E+04)
 number of electron     788.0000000 magnetization 
 augmentation part      788.0000000 magnetization 

 Free energy of the ion-electron system (eV)
  ---------------------------------------------------
  alpha Z        PSCENC =       750.43982500
  Ewald energy   TEWEN  =    -12862.08648222
  -Hartree energ DENC   =    -31852.97851430
  -exchange      EXHF   =         0.00000000
  -V(xc)+E(xc)   XCENC  =      2219.61267172
  PAW double counting   =     27925.15455194   -27342.52894715
  entropy T*S    EENTRO =        -0.25865292
  eigenvalues    EBANDS =     -8162.03381456
  atomic energy  EATOM  =     49225.33142032
  Solvation  Ediel_sol  =         0.00000000
  ---------------------------------------------------
  free energy    TOTEN  =       -99.34794218 eV

  energy without entropy =      -99.08928925  energy(sigma->0) =      -99.21861572


--------------------------------------------------------------------------------------------------------




--------------------------------------- Iteration      1(   5)  ---------------------------------------


    EDDIAG:  cpu time    2.7796: real time    2.7905
  RMM-DIIS:  cpu time    5.5642: real time    5.5781
    ORTHCH:  cpu time    0.6359: real time    0.6363
       DOS:  cpu time    0.0020: real time    0.0020
    --------------------------------------------
      LOOP:  cpu time    8.9816: real time    9.0069

 eigenvalue-minimisations  :   472
 total energy-change (2. order) :-0.5850501E+03  (-0.4362493E+03)
 number of electron     788.0000000 magnetization 
 augmentation part      788.0000000 magnetization 

 Free energy of the ion-electron system (eV)
  ---------------------------------------------------
  alpha Z        PSCENC =       750.43982500
  Ewald energy   TEWEN  =    -12862.08648222
  -Hartree energ DENC   =    -31852.97851430
  -exchange      EXHF   =         0.00000000
  -V(xc)+E(xc)   XCENC  =      2219.61267172
  PAW double counting   =     27925.15455194   -27342.52894715
  entropy T*S    EENTRO =        -0.53408658
  eigenvalues    EBANDS =     -8746.80846455
  atomic energy  EATOM  =     49225.33142032
  Solvation  Ediel_sol  =         0.00000000
  ---------------------------------------------------
  free energy    TOTEN  =      -684.39802583 eV

  energy without entropy =     -683.86393924  energy(sigma->0) =     -684.13098254


--------------------------------------------------------------------------------------------------------




--------------------------------------- Iteration      1(   6)  ---------------------------------------


    EDDIAG:  cpu time    2.7946: real time    2.8041
  RMM-DIIS:  cpu time    5.5592: real time    5.5760
    ORTHCH:  cpu time    0.6349: real time    0.6359
       DOS:  cpu time    0.0020: real time    0.0021
    --------------------------------------------
      LOOP:  cpu time    8.9906: real time    9.0182

 eigenvalue-minimisations  :   472
 total energy-change (2. order) :-0.2777081E+03  (-0.1927935E+03)
 number of electron     788.0000000 magnetization 
 augmentation part      788.0000000 magnetization 

 Free energy of the ion-electron system (eV)
  ---------------------------------------------------
  alpha Z        PSCENC =       750.43982500
  Ewald energy   TEWEN  =    -12862.08648222
  -Hartree energ DENC   =    -31852.97851430
  -exchange      EXHF   =         0.00000000
  -V(xc)+E(xc)   XCENC  =      2219.61267172
  PAW double counting   =     27925.15455194   -27342.52894715
  entropy T*S    EENTRO =        -0.87947648
  eigenvalues    EBANDS =     -9024.17118982
  atomic energy  EATOM  =     49225.33142032
  Solvation  Ediel_sol  =         0.00000000
  ---------------------------------------------------
  free energy    TOTEN  =      -962.10614100 eV

  energy without entropy =     -961.22666451  energy(sigma->0) =     -961.66640276


--------------------------------------------------------------------------------------------------------




--------------------------------------- Iteration      1(   7)  ---------------------------------------


    EDDIAG:  cpu time    2.7896: real time    2.7910
  RMM-DIIS:  cpu time    5.5881: real time    5.5902
    ORTHCH:  cpu time    0.6339: real time    0.6343
       DOS:  cpu time    0.0020: real time    0.0021
    --------------------------------------------
      LOOP:  cpu time    9.0136: real time    9.0177

 eigenvalue-minimisations  :   472
 total energy-change (2. order) :-0.1588836E+03  (-0.1143351E+03)
 number of electron     788.0000000 magnetization 
 augmentation part      788.0000000 magnetization 

 Free energy of the ion-electron system (eV)
  ---------------------------------------------------
  alpha Z        PSCENC =       750.43982500
  Ewald energy   TEWEN  =    -12862.08648222
  -Hartree energ DENC   =    -31852.97851430
  -exchange      EXHF   =         0.00000000
  -V(xc)+E(xc)   XCENC  =      2219.61267172
  PAW double counting   =     27925.15455194   -27342.52894715
  entropy T*S    EENTRO =        -0.72176979
  eigenvalues    EBANDS =     -9183.21248586
  atomic energy  EATOM  =     49225.33142032
  Solvation  Ediel_sol  =         0.00000000
  ---------------------------------------------------
  free energy    TOTEN  =     -1120.98973035 eV

  energy without entropy =    -1120.26796055  energy(sigma->0) =    -1120.62884545


--------------------------------------------------------------------------------------------------------




--------------------------------------- Iteration      1(   8)  ---------------------------------------


    EDDIAG:  cpu time    2.7966: real time    2.7968
  RMM-DIIS:  cpu time    5.5802: real time    5.5853
    ORTHCH:  cpu time    0.6349: real time    0.6344
       DOS:  cpu time    0.0020: real time    0.0021
    --------------------------------------------
      LOOP:  cpu time    9.0136: real time    9.0186

 eigenvalue-minimisations  :   472
 total energy-change (2. order) :-0.9121621E+02  (-0.6596520E+02)
 number of electron     788.0000000 magnetization 
 augmentation part      788.0000000 magnetization 

 Free energy of the ion-electron system (eV)
  ---------------------------------------------------
  alpha Z        PSCENC =       750.43982500
  Ewald energy   TEWEN  =    -12862.08648222
  -Hartree energ DENC   =    -31852.97851430
  -exchange      EXHF   =         0.00000000
  -V(xc)+E(xc)   XCENC  =      2219.61267172
  PAW double counting   =     27925.15455194   -27342.52894715
  entropy T*S    EENTRO =        -0.69211108
  eigenvalues    EBANDS =     -9274.45835737
  atomic energy  EATOM  =     49225.33142032
  Solvation  Ediel_sol  =         0.00000000
  ---------------------------------------------------
  free energy    TOTEN  =     -1212.20594314 eV

  energy without entropy =    -1211.51383206  energy(sigma->0) =    -1211.85988760


--------------------------------------------------------------------------------------------------------




--------------------------------------- Iteration      1(   9)  ---------------------------------------


    EDDIAG:  cpu time    2.8146: real time    2.8156
  RMM-DIIS:  cpu time   15.7976: real time   15.8127
    ORTHCH:  cpu time    0.6449: real time    0.6447
       DOS:  cpu time    0.0020: real time    0.0021
    --------------------------------------------
      LOOP:  cpu time   19.2591: real time   19.2750

 eigenvalue-minimisations  :  1453
 total energy-change (2. order) :-0.1158645E+03  (-0.1017840E+03)
 number of electron     788.0000000 magnetization 
 augmentation part      788.0000000 magnetization 

 Free energy of the ion-electron system (eV)
  ---------------------------------------------------
  alpha Z        PSCENC =       750.43982500
  Ewald energy   TEWEN  =    -12862.08648222
  -Hartree energ DENC   =    -31852.97851430
  -exchange      EXHF   =         0.00000000
  -V(xc)+E(xc)   XCENC  =      2219.61267172
  PAW double counting   =     27925.15455194   -27342.52894715
  entropy T*S    EENTRO =        -0.69732935
  eigenvalues    EBANDS =     -9390.31763079
  atomic energy  EATOM  =     49225.33142032
  Solvation  Ediel_sol  =         0.00000000
  ---------------------------------------------------
  free energy    TOTEN  =     -1328.07043483 eV

  energy without entropy =    -1327.37310549  energy(sigma->0) =    -1327.72177016


--------------------------------------------------------------------------------------------------------




--------------------------------------- Iteration      1(  10)  ---------------------------------------


    EDDIAG:  cpu time    3.9444: real time    3.9466
  RMM-DIIS:  cpu time   16.2125: real time   16.2147
    ORTHCH:  cpu time    0.6419: real time    0.6420
       DOS:  cpu time    0.0020: real time    0.0021
    --------------------------------------------
      LOOP:  cpu time   20.8008: real time   20.8055

 eigenvalue-minimisations  :  1500
 total energy-change (2. order) :-0.6060744E+01  (-0.7798458E+01)
 number of electron     788.0000000 magnetization 
 augmentation part      788.0000000 magnetization 

 Free energy of the ion-electron system (eV)
  ---------------------------------------------------
  alpha Z        PSCENC =       750.43982500
  Ewald energy   TEWEN  =    -12862.08648222
  -Hartree energ DENC   =    -31852.97851430
  -exchange      EXHF   =         0.00000000
  -V(xc)+E(xc)   XCENC  =      2219.61267172
  PAW double counting   =     27925.15455194   -27342.52894715
  entropy T*S    EENTRO =        -0.69025558
  eigenvalues    EBANDS =     -9396.38544889
  atomic energy  EATOM  =     49225.33142032
  Solvation  Ediel_sol  =         0.00000000
  ---------------------------------------------------
  free energy    TOTEN  =     -1334.13117916 eV

  energy without entropy =    -1333.44092359  energy(sigma->0) =    -1333.78605137


--------------------------------------------------------------------------------------------------------




--------------------------------------- Iteration      1(  11)  ---------------------------------------


    EDDIAG:  cpu time    2.8216: real time    2.8220
  RMM-DIIS:  cpu time   16.2035: real time   16.2062
    ORTHCH:  cpu time    0.6429: real time    0.6423
       DOS:  cpu time    0.0020: real time    0.0021
    --------------------------------------------
      LOOP:  cpu time   19.6700: real time   19.6726

 eigenvalue-minimisations  :  1493
 total energy-change (2. order) :-0.2974846E-01  (-0.1593909E+00)
 number of electron     788.0000000 magnetization 
 augmentation part      788.0000000 magnetization 

 Free energy of the ion-electron system (eV)
  ---------------------------------------------------
  alpha Z        PSCENC =       750.43982500
  Ewald energy   TEWEN  =    -12862.08648222
  -Hartree energ DENC   =    -31852.97851430
  -exchange      EXHF   =         0.00000000
  -V(xc)+E(xc)   XCENC  =      2219.61267172
  PAW double counting   =     27925.15455194   -27342.52894715
  entropy T*S    EENTRO =        -0.69035252
  eigenvalues    EBANDS =     -9396.41510041
  atomic energy  EATOM  =     49225.33142032
  Solvation  Ediel_sol  =         0.00000000
  ---------------------------------------------------
  free energy    TOTEN  =     -1334.16092762 eV

  energy without entropy =    -1333.47057510  energy(sigma->0) =    -1333.81575136


--------------------------------------------------------------------------------------------------------




--------------------------------------- Iteration      1(  12)  ---------------------------------------


    EDDIAG:  cpu time    2.8406: real time    2.8427
  RMM-DIIS:  cpu time   16.0776: real time   16.0793
    ORTHCH:  cpu time    0.6429: real time    0.6429
       DOS:  cpu time    0.0020: real time    0.0021
    CHARGE:  cpu time    0.7519: real time    0.7519
    MIXING:  cpu time    0.0180: real time    0.0180
    --------------------------------------------
      LOOP:  cpu time   20.3329: real time   20.3369

 eigenvalue-minimisations  :  1487
 total energy-change (2. order) :-0.1702779E-01  (-0.1651553E-01)
 number of electron     787.9999727 magnetization 
 augmentation part       82.5515371 magnetization 

 Broyden mixing:
  rms(total) = 0.93308E+01    rms(broyden)= 0.93250E+01
  rms(prec ) = 0.10356E+02
  weight for this iteration     100.00

 Free energy of the ion-electron system (eV)
  ---------------------------------------------------
  alpha Z        PSCENC =       750.43982500
  Ewald energy   TEWEN  =    -12862.08648222
  -Hartree energ DENC   =    -31852.97851430
  -exchange      EXHF   =         0.00000000
  -V(xc)+E(xc)   XCENC  =      2219.61267172
  PAW double counting   =     27925.15455194   -27342.52894715
  entropy T*S    EENTRO =        -0.69040648
  eigenvalues    EBANDS =     -9396.43207424
  atomic energy  EATOM  =     49225.33142032
  Solvation  Ediel_sol  =         0.00000000
  ---------------------------------------------------
  free energy    TOTEN  =     -1334.17795541 eV

  energy without entropy =    -1333.48754893  energy(sigma->0) =    -1333.83275217


--------------------------------------------------------------------------------------------------------




--------------------------------------- Iteration      1(  13)  ---------------------------------------


    POTLOK:  cpu time    1.1878: real time    1.1892
    SETDIJ:  cpu time    0.0270: real time    0.0274
    EDDIAG:  cpu time    2.8136: real time    2.8137
  RMM-DIIS:  cpu time   14.8157: real time   14.8177
    ORTHCH:  cpu time    0.6399: real time    0.6403
       DOS:  cpu time    0.0020: real time    0.0019
    CHARGE:  cpu time    0.7559: real time    0.7567
    MIXING:  cpu time    0.0180: real time    0.0208
    --------------------------------------------
      LOOP:  cpu time   20.2599: real time   20.2677

 eigenvalue-minimisations  :  1382
 total energy-change (2. order) : 0.1002132E+03  (-0.1570906E+03)
 number of electron     787.9999780 magnetization 
 augmentation part       77.0573204 magnetization 

 Broyden mixing:
  rms(total) = 0.50335E+01    rms(broyden)= 0.50290E+01
  rms(prec ) = 0.56460E+01
  weight for this iteration     100.00

 eigenvalues of (default mixing * dielectric matrix)
  average eigenvalue GAMMA=   0.6992
  0.6992

 Free energy of the ion-electron system (eV)
  ---------------------------------------------------
  alpha Z        PSCENC =       750.43982500
  Ewald energy   TEWEN  =    -12862.08648222
  -Hartree energ DENC   =    -33505.84904705
  -exchange      EXHF   =         0.00000000
  -V(xc)+E(xc)   XCENC  =      2333.26148555
  PAW double counting   =     32561.97740760   -31948.94121683
  entropy T*S    EENTRO =        -0.49430535
  eigenvalues    EBANDS =     -7787.60381120
  atomic energy  EATOM  =     49225.33142032
  Solvation  Ediel_sol  =         0.00000000
  ---------------------------------------------------
  free energy    TOTEN  =     -1233.96472419 eV

  energy without entropy =    -1233.47041884  energy(sigma->0) =    -1233.71757152


--------------------------------------------------------------------------------------------------------




--------------------------------------- Iteration      1(  14)  ---------------------------------------


    POTLOK:  cpu time    0.7639: real time    0.7636
    SETDIJ:  cpu time    0.0270: real time    0.0274
    EDDIAG:  cpu time    2.7876: real time    2.7879
  RMM-DIIS:  cpu time   13.1560: real time   13.1581
    ORTHCH:  cpu time    0.6399: real time    0.6396
       DOS:  cpu time    0.0020: real time    0.0021
    CHARGE:  cpu time    0.7599: real time    0.7604
    MIXING:  cpu time    0.0210: real time    0.0226
    --------------------------------------------
      LOOP:  cpu time   18.1572: real time   18.1617

 eigenvalue-minimisations  :  1220
 total energy-change (2. order) : 0.1017339E+03  (-0.2512862E+02)
 number of electron     787.9999778 magnetization 
 augmentation part       75.4324673 magnetization 

 Broyden mixing:
  rms(total) = 0.31108E+01    rms(broyden)= 0.31073E+01
  rms(prec ) = 0.34481E+01
  weight for this iteration     100.00

 eigenvalues of (default mixing * dielectric matrix)
  average eigenvalue GAMMA=   0.7328
  0.7328  0.7328

 Free energy of the ion-electron system (eV)
  ---------------------------------------------------
  alpha Z        PSCENC =       750.43982500
  Ewald energy   TEWEN  =    -12862.08648222
  -Hartree energ DENC   =    -33847.96661142
  -exchange      EXHF   =         0.00000000
  -V(xc)+E(xc)   XCENC  =      2348.08332031
  PAW double counting   =     33745.46157090   -33202.94883052
  entropy T*S    EENTRO =        -0.51423044
  eigenvalues    EBANDS =     -7288.03078539
  atomic energy  EATOM  =     49225.33142032
  Solvation  Ediel_sol  =         0.00000000
  ---------------------------------------------------
  free energy    TOTEN  =     -1132.23080347 eV

  energy without entropy =    -1131.71657303  energy(sigma->0) =    -1131.97368825


--------------------------------------------------------------------------------------------------------




--------------------------------------- Iteration      1(  15)  ---------------------------------------


    POTLOK:  cpu time    0.7579: real time    0.7578
    SETDIJ:  cpu time    0.0280: real time    0.0280
    EDDIAG:  cpu time    2.7976: real time    2.7982
  RMM-DIIS:  cpu time   13.9009: real time   13.9026
    ORTHCH:  cpu time    0.6409: real time    0.6414
       DOS:  cpu time    0.0020: real time    0.0021
    CHARGE:  cpu time    0.7519: real time    0.7519
    MIXING:  cpu time    0.0190: real time    0.0208
    --------------------------------------------
      LOOP:  cpu time   18.8981: real time   18.9027

 eigenvalue-minimisations  :  1292
 total energy-change (2. order) : 0.1266486E+02  (-0.6816822E+01)
 number of electron     787.9999781 magnetization 
 augmentation part       73.9091610 magnetization 

 Broyden mixing:
  rms(total) = 0.21781E+01    rms(broyden)= 0.21743E+01
  rms(prec ) = 0.25234E+01
  weight for this iteration     100.00

 eigenvalues of (default mixing * dielectric matrix)
  average eigenvalue GAMMA=   0.7376
  0.8861  0.8861  0.4406

 Free energy of the ion-electron system (eV)
  ---------------------------------------------------
  alpha Z        PSCENC =       750.43982500
  Ewald energy   TEWEN  =    -12862.08648222
  -Hartree energ DENC   =    -33983.53565650
  -exchange      EXHF   =         0.00000000
  -V(xc)+E(xc)   XCENC  =      2354.56977298
  PAW double counting   =     34299.06654018   -33772.83486574
  entropy T*S    EENTRO =        -0.42720049
  eigenvalues    EBANDS =     -7130.08929545
  atomic energy  EATOM  =     49225.33142032
  Solvation  Ediel_sol  =         0.00000000
  ---------------------------------------------------
  free energy    TOTEN  =     -1119.56594194 eV

  energy without entropy =    -1119.13874145  energy(sigma->0) =    -1119.35234170


--------------------------------------------------------------------------------------------------------




--------------------------------------- Iteration      1(  16)  ---------------------------------------


    POTLOK:  cpu time    0.7729: real time    0.7740
    SETDIJ:  cpu time    0.0270: real time    0.0274
    EDDIAG:  cpu time    2.7966: real time    2.7974
  RMM-DIIS:  cpu time   14.8287: real time   14.8308
    ORTHCH:  cpu time    0.6399: real time    0.6394
       DOS:  cpu time    0.0020: real time    0.0020
    CHARGE:  cpu time    0.7599: real time    0.7606
    MIXING:  cpu time    0.0210: real time    0.0210
    --------------------------------------------
      LOOP:  cpu time   19.8480: real time   19.8526

 eigenvalue-minimisations  :  1381
 total energy-change (2. order) :-0.8823834E+00  (-0.2807232E+01)
 number of electron     787.9999780 magnetization 
 augmentation part       73.2184996 magnetization 

 Broyden mixing:
  rms(total) = 0.20665E+01    rms(broyden)= 0.20614E+01
  rms(prec ) = 0.25091E+01
  weight for this iteration     100.00

 eigenvalues of (default mixing * dielectric matrix)
  average eigenvalue GAMMA=   0.7030
  1.0186  1.0186  0.3874  0.3874

 Free energy of the ion-electron system (eV)
  ---------------------------------------------------
  alpha Z        PSCENC =       750.43982500
  Ewald energy   TEWEN  =    -12862.08648222
  -Hartree energ DENC   =    -34082.19384961
  -exchange      EXHF   =         0.00000000
  -V(xc)+E(xc)   XCENC  =      2358.55938525
  PAW double counting   =     34734.23830182   -34209.54956140
  entropy T*S    EENTRO =        -0.33707564
  eigenvalues    EBANDS =     -7034.85028882
  atomic energy  EATOM  =     49225.33142032
  Solvation  Ediel_sol  =         0.00000000
  ---------------------------------------------------
  free energy    TOTEN  =     -1120.44832530 eV

  energy without entropy =    -1120.11124966  energy(sigma->0) =    -1120.27978748


[...]
   -.736E+02 0.224E+02 0.438E+02   0.720E+02 -.222E+02 -.440E+02   0.199E+01 -.215E+00 -.120E+00   0.129E-03 -.555E-04 0.184E-04
   0.166E+02 -.601E+02 0.455E+02   -.157E+02 0.568E+02 -.431E+02   -.913E+00 0.301E+01 -.193E+01   -.122E-03 0.196E-03 -.222E-03
   -.295E+02 0.804E+02 -.352E+02   0.286E+02 -.792E+02 0.357E+02   0.975E+00 -.175E+01 -.382E+00   -.784E-04 -.338E-04 -.798E-04
   0.625E+02 0.270E+02 0.536E+02   -.609E+02 -.280E+02 -.546E+02   -.193E+01 0.386E+00 0.267E+00   -.655E-04 0.667E-04 -.414E-04
   -.174E+02 -.733E+02 0.427E+02   0.166E+02 0.714E+02 -.425E+02   0.954E+00 0.206E+01 -.326E+00   0.542E-04 0.834E-05 0.241E-04
   0.491E+02 -.608E+02 -.466E+02   -.516E+02 0.600E+02 0.476E+02   0.129E+01 0.128E+01 -.439E+00   -.265E-03 0.177E-03 -.246E-03
   -.679E+02 -.571E+01 -.201E+02   0.647E+02 0.529E+01 0.180E+02   0.310E+01 0.426E+00 0.152E+01   0.102E-03 0.184E-03 0.197E-04
   0.275E+02 0.719E+02 -.205E+02   -.272E+02 -.715E+02 0.205E+02   -.514E+00 -.103E+01 -.503E-01   0.242E-03 -.439E-03 -.114E-03
   0.727E+02 -.220E+02 -.137E+02   -.713E+02 0.219E+02 0.134E+02   -.189E+01 0.160E+00 0.270E+00   -.117E-03 -.135E-03 -.348E-04
   -.184E+02 0.729E+02 -.150E+02   0.176E+02 -.711E+02 0.146E+02   0.920E+00 -.201E+01 0.379E+00   0.131E-03 -.188E-03 -.108E-03
   0.262E+02 -.547E+02 0.111E+02   -.267E+02 0.570E+02 -.122E+02   0.499E+00 -.120E+01 0.295E+00   -.570E-03 -.377E-03 0.216E-03
   -.737E+02 0.282E+02 -.162E+02   0.735E+02 -.258E+02 0.194E+02   0.126E+01 -.166E+01 -.195E+01   0.228E-03 -.116E-03 0.139E-04
   0.120E+02 -.305E+02 -.161E+02   -.133E+02 0.257E+02 0.161E+02   0.659E+00 0.353E+01 0.133E+00   0.423E-03 0.127E-04 0.120E-03
   0.566E+02 -.521E+02 -.155E+02   -.587E+02 0.515E+02 0.154E+02   0.109E+01 0.115E+01 0.211E+00   0.283E-03 0.108E-03 -.485E-04
   -.716E+02 -.191E+02 -.148E+02   0.699E+02 0.189E+02 0.146E+02   0.208E+01 0.133E+00 0.212E+00   0.154E-03 -.233E-05 -.676E-04
   0.187E+02 0.674E+02 -.126E+02   -.175E+02 -.645E+02 0.102E+02   -.109E+01 -.283E+01 0.189E+01   -.223E-03 -.376E-03 0.837E-05
   -.297E+02 0.782E+02 -.291E+02   0.325E+02 -.810E+02 0.320E+02   -.155E+01 0.613E+00 -.757E+00   -.228E-03 -.596E-04 0.174E-03
   -.172E+02 -.785E+02 -.146E+02   0.172E+02 0.773E+02 0.146E+02   0.534E+00 0.166E+01 0.177E+00   -.330E-04 -.498E-04 0.991E-04
   -.860E+02 -.655E+01 0.278E+02   0.860E+02 0.630E+01 -.278E+02   0.122E+01 0.382E+00 -.608E-01   0.242E-03 -.925E-04 0.104E-03
   0.159E+02 0.326E+02 0.564E+02   -.156E+02 -.290E+02 -.575E+02   -.497E+00 -.273E+01 0.414E+00   -.347E-03 -.643E-04 0.204E-03
   0.819E+02 0.275E+01 -.140E+02   -.812E+02 -.774E+00 0.117E+02   -.138E+01 -.160E+01 0.174E+01   -.229E-03 0.691E-04 -.110E-03
   -.513E+02 0.697E+02 -.184E+02   0.532E+02 -.692E+02 0.184E+02   -.876E+00 -.101E+01 -.179E-03   0.399E-04 -.243E-03 -.760E-04
   -.366E+02 -.692E+02 -.167E+02   0.372E+02 0.663E+02 0.167E+02   -.341E+00 0.303E+01 -.342E-02   0.813E-05 0.327E-03 -.355E-03
   0.212E+02 -.127E+02 0.708E+02   -.180E+02 0.138E+02 -.742E+02   -.230E+01 -.231E-01 0.109E+01   -.252E-03 0.874E-04 0.316E-04
   -.484E+02 -.702E+02 0.257E+02   0.509E+02 0.702E+02 -.259E+02   -.113E+01 0.694E+00 0.492E-01   -.131E-03 0.160E-03 0.102E-03
   -.230E+02 0.608E+02 0.322E+02   0.235E+02 -.575E+02 -.322E+02   -.325E+00 -.312E+01 0.820E-01   0.416E-03 -.361E-03 0.517E-03
   -.830E+02 0.702E+01 -.140E+02   0.816E+02 -.676E+01 0.139E+02   0.180E+01 -.330E+00 0.672E-01   0.127E-03 0.159E-03 -.433E-04
   0.360E+02 -.771E+02 -.195E+02   -.355E+02 0.756E+02 0.196E+02   -.667E+00 0.193E+01 -.718E-01   -.142E-03 0.156E-03 -.195E-03
   -.232E+02 0.337E+02 0.182E+02   0.231E+02 -.331E+02 -.185E+02   0.332E+00 -.792E+00 0.140E+00   -.350E-04 -.386E-04 0.441E-04
   -.222E+02 -.325E+02 0.146E+02   0.222E+02 0.320E+02 -.146E+02   0.243E+00 0.796E+00 -.155E-01   -.313E-05 -.284E-05 -.816E-04
   0.409E+02 -.218E+01 0.187E+02   -.408E+02 0.228E+01 -.188E+02   -.672E+00 -.828E-01 0.575E-01   0.168E-04 0.839E-04 0.224E-04
   0.140E+02 -.374E+02 -.288E+02   -.114E+02 0.388E+02 0.302E+02   -.209E+01 -.581E+00 -.107E+01   -.305E-03 0.657E-04 -.295E-04
   -.328E+02 0.352E+02 -.597E+02   0.368E+02 -.340E+02 0.623E+02   -.262E+01 -.117E+01 -.119E+01   -.402E-03 -.188E-04 0.915E-05
   -.664E+01 -.145E+02 -.354E+02   0.607E+01 0.144E+02 0.358E+02   0.536E+00 0.162E+00 -.172E+00   0.959E-03 -.298E-04 -.225E-03
   0.172E+02 0.353E+02 0.198E+02   -.171E+02 -.348E+02 -.201E+02   -.366E+00 -.828E+00 0.789E-01   -.493E-04 -.237E-04 -.460E-04
   0.201E+02 -.354E+02 0.159E+02   -.198E+02 0.350E+02 -.159E+02   -.492E+00 0.684E+00 0.234E-01   -.679E-04 0.103E-04 -.359E-04
   -.410E+02 -.711E+00 0.166E+02   0.441E+02 0.733E+00 -.165E+02   -.183E+01 0.356E-01 -.290E-01   0.308E-03 0.198E-03 0.443E-03
   -.748E+01 -.464E+02 -.610E+02   0.929E+01 0.465E+02 0.628E+02   -.119E+01 -.552E-01 -.674E+00   -.489E-03 -.555E-05 -.123E-03
   0.817E+02 0.931E+02 -.247E+01   -.867E+02 -.997E+02 0.314E+01   0.497E+01 0.658E+01 -.674E+00   0.137E-03 0.386E-03 -.673E-05
 -----------------------------------------------------------------------------------------------
   0.342E+02 0.238E+02 -.371E+01   -.227E-12 -.853E-13 0.353E-12   -.342E+02 -.238E+02 0.371E+01   -.262E-02 -.247E-02 -.493E-03
 
 
 POSITION                                       TOTAL-FORCE (eV/Angst)
 -----------------------------------------------------------------------------------
      4.69107     -0.96607     13.00144         0.665454      0.513511      0.085806
      4.76510     -6.32127     13.00144        -0.498480     -0.046640      0.049808
      4.69107      0.96607      2.60694         0.619368     -0.410926     -0.175911
      4.69107     -0.96607     18.18206         0.676750      0.385985      0.156932
      4.69107      0.96607      7.78756        -1.045660      0.257258     -0.275981
      1.59109      2.67977      5.19725        -0.625654      0.325168     -0.027298
      1.59109     -2.67977     15.59175        -0.672098     -0.439721      0.137089
      1.55470      2.69281     10.39450         0.023934      0.292653      0.039121
      1.55470     -2.69281     10.39450        -0.181451     -0.423687     -0.187131
      6.62126     -1.27376      8.81891        -0.081217      0.522863     -0.620178
      8.89456     -3.25454      7.23038        -0.500233      0.396943      0.233859
      8.50817      0.37491      1.25981         0.206261     -0.252610     -0.197432
      7.96923      7.18084      1.25981         0.181846     -0.012729      0.015221
      2.34459      3.31114      1.25981        -0.304735      0.223594     -0.420123
      4.03983     -0.37491     11.65431        -1.615374      1.480927     -3.592254
      4.57877     -7.18084     11.65431        -0.554900     -2.437488     -3.817038
     10.20341     -3.31114     11.65431        -0.060556     -0.183906     -0.348477
      4.03983      0.37491      1.25981        -1.984360     -1.676786     -3.666380
      4.57877      7.18084      1.25981        -0.203890      0.041746      0.105327
     10.20341      3.31114      1.25981         0.147797      0.188008     -0.098461
      8.50817     -0.37491     11.65431         0.141194      0.284590     -0.857837
      7.96923     -7.18084     11.65431         0.416897      2.643355      3.383853
      2.34459     -3.31114     11.65431         2.070247     -1.580830      3.253314
      4.03983     -0.37491     19.52919        -1.970757      1.658632      3.643495
      4.57877     -7.18084     19.52919        -0.207609     -0.088681      0.170887
     10.20341     -3.31114     19.52919         0.204102     -0.163261      0.222508
      8.50817      0.37491      9.13469        -0.521106     -0.628637      0.029565
      7.96923      7.18084      9.13469         0.379050     -2.799410     -3.736444
      2.34459      3.31114      9.13469         2.130056      1.880705     -3.424837
      8.50817     -0.37491     19.52919         0.208501      0.241439      0.324131
      7.96923     -7.18084     19.52919         0.204189     -0.047762      0.112613
      2.34459     -3.31114     19.52919        -0.341303     -0.183129      0.474898
      4.03983      0.37491      9.13469        -1.115462     -1.871008      3.375987
      4.57877      7.18084      9.13469        -0.594281     -0.153355     -0.809110
     10.20341      3.31114      9.13469        -0.252230      0.195263     -0.352055
      8.52762      0.25211      3.88339         0.301961     -0.587269      0.578003
      8.06585      7.25908      3.88339         0.199376      0.066259      0.101256
      2.22852      3.35569      3.88339         1.779555      1.880795     -3.576664
      4.02038     -0.25211     14.27789        -1.836213      1.918901      3.396706
      4.48215     -7.25908     14.27789        -0.707518     -2.581500      3.578888
     10.31948     -3.35569     14.27789        -0.045238     -0.273133     -0.193354
      4.02038      0.25211      3.88339        -1.818419     -1.953673      3.363677
      4.48215      7.25908      3.88339        -0.441959      0.358123      0.849835
     10.31948      3.35569      3.88339        -0.037667      0.274329     -0.085933
      8.52762     -0.25211     14.27789         0.077498      0.299191      0.014415
      8.06585     -7.25908     14.27789         0.390499     -0.145240      0.318872
      2.22852     -3.35569     14.27789         1.696653     -1.730593     -3.420412
      4.02038     -0.25211     16.90561        -1.837711      1.925195     -3.372327
      4.48215     -7.25908     16.90561        -0.289096     -0.016318      0.247554
     10.31948     -3.35569     16.90561        -0.015082     -0.293659      0.156385
      8.52762      0.25211      6.51111        -0.098600     -0.656395      0.233875
      8.06585      7.25908      6.51111         0.149109      0.027290     -0.328923
      2.22852      3.35569      6.51111         1.844077      2.124100      3.592570
      8.52762     -0.25211     16.90561         0.080873      0.316519     -0.147008
      8.06585     -7.25908     16.90561         0.314565     -0.021256      0.019137
      2.22852     -3.35569     16.90561         1.730042     -1.788050      3.531793
      4.02038      0.25211      6.51111        -1.565291     -2.055769     -3.262733
      4.48215      7.25908      6.51111        -1.755199      0.409800      0.185683
     10.31948      3.35569      6.51111        -0.150017      0.284144      0.226516
      8.12797      2.55263      2.67762        -0.312263      0.429292      0.137944
      6.27337      5.76271      2.67762        -0.044469     -0.497871      0.194346
      4.42066      2.55155      2.67762        -0.835408      4.432722      0.288405
      4.42003     -2.55263     13.07212        -0.708785     -4.055167      0.135431
      6.27463     -5.76271     13.07212         4.056432      1.478612      0.111053
      8.12734     -2.55155     13.07212        -0.297045     -0.396418     -0.048276
      4.42003     -2.55263     18.11138        -0.811203     -4.282467     -0.282925
      6.27463     -5.76271     18.11138         0.002420      0.564346     -0.056235
      8.12734     -2.55155     18.11138        -0.274219     -0.517415     -0.075513
      8.12797      2.55263      7.71688        -0.705402     -0.164247     -0.031868
      6.27337      5.76271      7.71688        -0.841202     -0.461021     -0.487800
      4.42066      2.55155      7.71688        -0.468659      4.400145     -0.170300
      6.27337      0.68353      2.60486         4.679881     -0.693902      0.088115
      8.81936      5.09114      2.60486         0.023929      0.197770      0.042312
      3.72927      5.09222      2.60486         0.070177      0.730900     -0.002991
      6.27463     -0.68353     12.99936         4.578880      0.625848     -0.161471
      3.72864     -5.09114     12.99936        -2.764472      3.219632     -0.006992
      8.81873     -5.09222     12.99936         0.485216      0.323182      0.076476
      6.27463     -0.68353     18.18414         4.481586      0.673821     -0.021598
      3.72864     -5.09114     18.18414         0.013552     -0.532996      0.121274
      8.81873     -5.09222     18.18414         0.120427     -0.048671      0.011760
      6.27337      0.68353      7.78964         4.989134     -2.074132      0.852050
      8.81936      5.09114      7.78964         0.102495     -0.177444     -0.201324
      3.72927      5.09222      7.78964         0.259301      1.577230     -0.260186
      6.27400      8.66526      5.19725        -0.825752      0.346983      0.275325
      1.90667      1.10082      5.19725         0.831614     -4.301287     -0.099279
     10.64133      1.10082      5.19725         0.096443     -0.879034      0.092218
      6.27400     -8.66526     15.59175         0.158008     -0.602059      0.062214
     10.64133     -1.10082     15.59175         0.305163      0.403028      0.000126
      1.90667     -1.10082     15.59175         0.869699      4.199051     -0.009854
      2.52591     -1.45834      5.19725        -0.344844     -0.822435      0.008110
      6.27400     -7.95021      5.19725        -4.656553      0.535909      0.029228
     10.02209     -1.45834      5.19725        -0.065611     -0.776083      0.445651
     10.02209      1.45834     15.59175        -0.111227     -0.173859      0.106833
      6.27400      7.95021     15.59175        -4.496190     -0.515293     -0.004036
      2.52591      1.45834     15.59175        -0.155728      0.564459      0.009473
      6.27463      8.34903     20.41272        -0.073832      0.150480     -0.283346
      2.18021      1.25947     20.41272        -0.409114      0.127136     -0.319569
     10.36716      1.25839     20.41272         0.207382     -0.032765     -0.316002
      6.27337     -8.34903     10.01822        -4.202889     -0.437775     -0.941259
     10.36778     -1.25947     10.01822        -0.369640      0.278186     -0.758726
      2.18084     -1.25839     10.01822         1.734727      3.745714     -0.945157
      6.27337     -8.34903      0.37628         0.011445     -0.168592      0.340021
     10.36778     -1.25947      0.37628         0.191494      0.042512      0.393080
      2.18084     -1.25839      0.37628        -0.459121     -0.226013      0.342662
      6.27463      8.34903     10.77078        -4.717198      0.468598      0.807938
      2.18021      1.25947     10.77078         1.655949     -3.814736      0.959534
     10.36716      1.25839     10.77078        -0.335987     -0.647432      0.116355
      7.35178     -2.90608      8.22821         0.042285     -0.016547     -0.019844
      7.85693      0.96607      2.60694        -1.281916     -0.376167     -0.388132
      7.78290      6.32127      2.60694         0.421634     -0.048969     -0.258919
      3.18217      3.57955      2.60694         0.060658     -0.297826      0.421641
      9.36583     -3.57955     13.00144         0.115014     -0.470812      0.143742
      4.76510      6.32127      2.60694        -0.346579     -0.536661     -0.703874
      9.36583      3.57955      2.60694         0.183748      0.119160     -0.105668
      7.85693     -0.96607     13.00144        -1.207405      0.447049      0.505493
      7.78290     -6.32127     13.00144        -0.145616      0.010101     -0.551406
      3.18217     -3.57955     13.00144        -0.164946     -0.650181     -0.084395
      4.76510     -6.32127     18.18206        -0.391043      0.105546     -0.034150
      9.36583     -3.57955     18.18206         0.087686     -0.217855     -0.022890
      7.85693      0.96607      7.78756         0.022335      1.077472     -0.804753
      7.78290      6.32127      7.78756         0.952497      0.704082      1.227835
      3.18217      3.57955      7.78756        -0.649174     -1.252855      0.089279
      7.85693     -0.96607     18.18206        -1.013428      0.524280      0.056806
      7.78290     -6.32127     18.18206         0.295169     -0.006240      0.047198
      3.18217     -3.57955     18.18206         0.127614      0.042664     -0.441255
      4.76510      6.32127      7.78756         1.311386     -2.125831      2.117731
      9.36583      3.57955      7.78756         0.527717      0.447447      0.145078
      7.79921      8.14908      5.19725         1.136473      0.133104     -0.031298
      9.43170      0.03803      5.19725        -0.201237      0.810638     -0.632024
      4.74879     -8.14908     15.59175        -0.645425      0.369832     -0.610181
     10.95691     -2.67977     15.59175         0.993002     -0.478138      0.006813
      3.11630     -0.03803     15.59175         0.248432      0.070706     -0.069867
      4.74879      8.14908      5.19725         0.900588      1.075223     -2.408677
     10.95691      2.67977      5.19725         1.316913      0.706634     -0.125348
      3.11630      0.03803      5.19725         0.234459      0.189625      0.140903
      7.79921     -8.14908     15.59175         0.363769     -0.058504     -0.047545
      9.43170     -0.03803     15.59175        -0.143165      0.358938      0.022583
      1.55470     -2.69281      0.00000         0.284358     -0.195731     -0.130206
      1.55470      2.69281      0.00000         0.221085      0.271718      0.015435
      9.43861      0.00000      0.00000        -0.509299      0.018640     -0.081769
      4.71930     -8.17407     10.39450         0.526972      0.735776      0.342556
      4.71930      8.17407     10.39450         1.295221      0.100040      1.380357
      3.10939      0.00000     10.39450        -0.023679      0.101596      0.169369
      4.71930      8.17407      0.00000        -0.165571     -0.233083     -0.204432
      4.71930     -8.17407      0.00000        -0.192047      0.279713     -0.046887
      3.10939      0.00000      0.00000         1.239549      0.057860     -0.000972
      9.43861      0.00000     10.39450         0.626001      0.097350      1.185230
      6.76419     -3.68088      8.30361        -0.003066     -0.020099      0.007942
 -----------------------------------------------------------------------------------
    total drift:                               -0.002151     -0.003080     -0.001636


--------------------------------------------------------------------------------------------------------



  FREE ENERGIE OF THE ION-ELECTRON SYSTEM (eV)
  ---------------------------------------------------
  free  energy   TOTEN  =     -1123.51540554 eV

  energy  without entropy=    -1122.38283402  energy(sigma->0) =    -1122.94911978
 


--------------------------------------------------------------------------------------------------------


    POTLOK:  cpu time    0.7939: real time    0.7942


--------------------------------------------------------------------------------------------------------


     LOOP+:  cpu time 1127.2586: real time 1128.4146
    4ORBIT:  cpu time    0.0000: real time    0.0000

 total amount of memory used by VASP MPI-rank0   162520. kBytes
=======================================================================

   base      :      30000. kBytes
   nonlr-proj:      18132. kBytes
   fftplans  :      24655. kBytes
   grid      :      56288. kBytes
   one-center:        202. kBytes
   wavefun   :      33243. kBytes
 
  
  
 General timing and accounting informations for this job:
 ========================================================
  
                  Total CPU time used (sec):     1135.216
                            User time (sec):     1133.197
                          System time (sec):        2.020
                         Elapsed time (sec):     1136.608
  
                   Maximum memory used (kb):      278428.
                   Average memory used (kb):           0.
  
                          Minor page faults:       186187
                          Major page faults:          162
                 Voluntary context switches:          870
