 vasp.5.4.4.18Apr17-6-g9f103f2a35 (build Dec 21 2018 14:18:36) complex          
  
 executed on             LinuxIFC date 2022.04.06  11:28:00
 running on   12 total cores
 distrk:  each k-point on   12 cores,    1 groups
 distr:  one band on NCORES_PER_BAND=  12 cores,    1 groups


--------------------------------------------------------------------------------------------------------


 INCAR:
 POTCAR:  PAW_PBE Al 04Jan2001                    
 POTCAR:   PAW_PBE Cu 22Jun2005                   
 POTCAR:   PAW_PBE O 08Apr2002                    
 POTCAR:   PAW_PBE Si 05Jan2001                   

 ----------------------------------------------------------------------------- 
|                                                                             |
|           W    W    AA    RRRRR   N    N  II  N    N   GGGG   !!!           |
|           W    W   A  A   R    R  NN   N  II  NN   N  G    G  !!!           |
|           W    W  A    A  R    R  N N  N  II  N N  N  G       !!!           |
|           W WW W  AAAAAA  RRRRR   N  N N  II  N  N N  G  GGG   !            |
|           WW  WW  A    A  R   R   N   NN  II  N   NN  G    G                |
|           W    W  A    A  R    R  N    N  II  N    N   GGGG   !!!           |
|                                                                             |
|      For optimal performance we recommend to set                            |
|        NCORE= 4 - approx SQRT( number of cores)                             |
|      NCORE specifies how many cores store one orbital (NPAR=cpu/NCORE).     |
|      This setting can  greatly improve the performance of VASP for DFT.     |
|      The default,   NCORE=1            might be grossly inefficient         |
|      on modern multi-core architectures or massively parallel machines.     |
|      Do your own testing !!!!                                               |
|      Unfortunately you need to use the default for GW and RPA calculations. |
|      (for HF NCORE is supported but not extensively tested yet)             |
|                                                                             |
 ----------------------------------------------------------------------------- 

 POTCAR:  PAW_PBE Al 04Jan2001                    
   VRHFIN =Al: s2p1                                                             
   LEXCH  = PE                                                                  
   EATOM  =    53.5387 eV,    3.9350 Ry                                         
                                                                                
   TITEL  = PAW_PBE Al 04Jan2001                                                
   LULTRA =        F    use ultrasoft PP ?                                      
   IUNSCR =        1    unscreen: 0-lin 1-nonlin 2-no                           
   RPACOR =    1.500    partial core radius                                     
   POMASS =   26.982; ZVAL   =    3.000    mass and valenz                      
   RCORE  =    1.900    outmost cutoff radius                                   
   RWIGS  =    2.650; RWIGS  =    1.402    wigner-seitz radius (au A)           
   ENMAX  =  240.300; ENMIN  =  180.225 eV                                      
   ICORE  =        2    local potential                                         
   LCOR   =        T    correct aug charges                                     
   LPAW   =        T    paw PP                                                  
   EAUG   =  291.052                                                            
   DEXC   =    -.041                                                            
   RMAX   =    2.974    core radius for proj-oper                               
   RAUG   =    1.300    factor for augmentation sphere                          
   RDEP   =    1.966    radius for radial grids                                 
   QCUT   =   -4.203; QGAM   =    8.405    optimization parameters              
                                                                                
   Description                                                                  
     l     E      TYP  RCUT    TYP  RCUT                                        
     0   .000     23  1.900                                                     
     0   .000     23  1.900                                                     
     1   .000     23  1.900                                                     
     1  1.000     23  1.900                                                     
     2   .000      7  1.900                                                     
  local pseudopotential read in
  partial core-charges read in
  atomic valenz-charges read in
  non local Contribution for L=           0  read in
    real space projection operators read in
  non local Contribution for L=           0  read in
    real space projection operators read in
  non local Contribution for L=           1  read in
    real space projection operators read in
  non local Contribution for L=           1  read in
    real space projection operators read in
    PAW grid and wavefunctions read in
 
   number of l-projection  operators is LMAX  =           4
   number of lm-projection operators is LMMAX =           8
 
 POTCAR:   PAW_PBE Cu 22Jun2005                   
   VRHFIN =Cu: d10 p1                                                           
   LEXCH  = PE                                                                  
   EATOM  =  1390.9808 eV,  102.2342 Ry                                         
                                                                                
   TITEL  = PAW_PBE Cu 22Jun2005                                                
   LULTRA =        F    use ultrasoft PP ?                                      
   IUNSCR =        1    unscreen: 0-lin 1-nonlin 2-no                           
   RPACOR =    2.000    partial core radius                                     
   POMASS =   63.546; ZVAL   =   11.000    mass and valenz                      
   RCORE  =    2.300    outmost cutoff radius                                   
   RWIGS  =    2.200; RWIGS  =    1.164    wigner-seitz radius (au A)           
   ENMAX  =  295.446; ENMIN  =  221.585 eV                                      
   ICORE  =        3    local potential                                         
   LCOR   =        T    correct aug charges                                     
   LPAW   =        T    paw PP                                                  
   EAUG   =  586.980                                                            
   DEXC   =    0.000                                                            
   RMAX   =    2.344    core radius for proj-oper                               
   RAUG   =    1.300    factor for augmentation sphere                          
   RDEP   =    2.302    radius for radial grids                                 
   RDEPT  =    1.771    core radius for aug-charge                              
                                                                                
   Atomic configuration                                                         
    9 entries                                                                   
     n  l   j            E        occ.                                          
     1  0  0.50     -8850.2468   2.0000                                         
     2  0  0.50     -1062.3498   2.0000                                         
     2  1  1.50      -916.8226   6.0000                                         
     3  0  0.50      -114.6929   2.0000                                         
     3  1  1.50       -72.1325   6.0000                                         
     3  2  2.50        -5.0394  10.0000                                         
     4  0  0.50        -4.6097   1.0000                                         
     4  1  0.50        -4.0817   0.0000                                         
     4  3  2.50        -1.3606   0.0000                                         
   Description                                                                  
     l       E           TYP  RCUT    TYP  RCUT                                 
     2     -5.0393973     23  2.200                                             
     2     10.8846608     23  2.200                                             
     0     -4.6097109     23  2.200                                             
     0      8.2520465     23  2.200                                             
     1     -2.7211652     23  2.200                                             
     1     21.7055443     23  2.200                                             
     3      2.7211652     23  2.300                                             
  local pseudopotential read in
  partial core-charges read in
  partial kinetic energy density read in
  atomic valenz-charges read in
  non local Contribution for L=           2  read in
    real space projection operators read in
  non local Contribution for L=           2  read in
    real space projection operators read in
  non local Contribution for L=           0  read in
    real space projection operators read in
  non local Contribution for L=           0  read in
    real space projection operators read in
  non local Contribution for L=           1  read in
    real space projection operators read in
  non local Contribution for L=           1  read in
    real space projection operators read in
    PAW grid and wavefunctions read in
 
   number of l-projection  operators is LMAX  =           6
   number of lm-projection operators is LMMAX =          18
 
 POTCAR:   PAW_PBE O 08Apr2002                    
   VRHFIN =O: s2p4                                                              
   LEXCH  = PE                                                                  
   EATOM  =   432.3788 eV,   31.7789 Ry                                         
                                                                                
   TITEL  = PAW_PBE O 08Apr2002                                                 
   LULTRA =        F    use ultrasoft PP ?                                      
   IUNSCR =        0    unscreen: 0-lin 1-nonlin 2-no                           
   RPACOR =     .000    partial core radius                                     
   POMASS =   16.000; ZVAL   =    6.000    mass and valenz                      
   RCORE  =    1.520    outmost cutoff radius                                   
   RWIGS  =    1.550; RWIGS  =     .820    wigner-seitz radius (au A)           
   ENMAX  =  400.000; ENMIN  =  300.000 eV                                      
   ICORE  =        2    local potential                                         
   LCOR   =        T    correct aug charges                                     
   LPAW   =        T    paw PP                                                  
   EAUG   =  605.392                                                            
   DEXC   =     .000                                                            
   RMAX   =    2.264    core radius for proj-oper                               
   RAUG   =    1.300    factor for augmentation sphere                          
   RDEP   =    1.550    radius for radial grids                                 
   QCUT   =   -5.520; QGAM   =   11.041    optimization parameters              
                                                                                
   Description                                                                  
     l     E      TYP  RCUT    TYP  RCUT                                        
     0   .000     23  1.200                                                     
     0  -.700     23  1.200                                                     
     1   .000     23  1.520                                                     
     1   .600     23  1.520                                                     
     2   .000      7  1.500                                                     
  local pseudopotential read in
  atomic valenz-charges read in
  non local Contribution for L=           0  read in
    real space projection operators read in
  non local Contribution for L=           0  read in
    real space projection operators read in
  non local Contribution for L=           1  read in
    real space projection operators read in
  non local Contribution for L=           1  read in
    real space projection operators read in
    PAW grid and wavefunctions read in
 
   number of l-projection  operators is LMAX  =           4
   number of lm-projection operators is LMMAX =           8
 
 POTCAR:   PAW_PBE Si 05Jan2001                   
   VRHFIN =Si: s2p2                                                             
   LEXCH  = PE                                                                  
   EATOM  =   103.0669 eV,    7.5752 Ry                                         
                                                                                
   TITEL  = PAW_PBE Si 05Jan2001                                                
   LULTRA =        F    use ultrasoft PP ?                                      
   IUNSCR =        1    unscreen: 0-lin 1-nonlin 2-no                           
   RPACOR =    1.500    partial core radius                                     
   POMASS =   28.085; ZVAL   =    4.000    mass and valenz                      
   RCORE  =    1.900    outmost cutoff radius                                   
   RWIGS  =    2.480; RWIGS  =    1.312    wigner-seitz radius (au A)           
   ENMAX  =  245.345; ENMIN  =  184.009 eV                                      
   ICORE  =        2    local potential                                         
   LCOR   =        T    correct aug charges                                     
   LPAW   =        T    paw PP                                                  
   EAUG   =  322.069                                                            
   DEXC   =    -.007                                                            
   RMAX   =    2.944    core radius for proj-oper                               
   RAUG   =    1.300    factor for augmentation sphere                          
   RDEP   =    1.993    radius for radial grids                                 
   QCUT   =   -4.246; QGAM   =    8.493    optimization parameters              
                                                                                
   Description                                                                  
     l     E      TYP  RCUT    TYP  RCUT                                        
     0   .000     23  1.900                                                     
     0   .000     23  1.900                                                     
     1   .000     23  1.900                                                     
     1   .000     23  1.900                                                     
     2   .000      7  1.900                                                     
  local pseudopotential read in
  partial core-charges read in
  atomic valenz-charges read in
  non local Contribution for L=           0  read in
    real space projection operators read in
  non local Contribution for L=           0  read in
    real space projection operators read in
  non local Contribution for L=           1  read in
    real space projection operators read in
  non local Contribution for L=           1  read in
    real space projection operators read in
    PAW grid and wavefunctions read in
 
   number of l-projection  operators is LMAX  =           4
   number of lm-projection operators is LMMAX =           8
 
 Optimization of the real space projectors (new method)

 maximal supplied QI-value         = 19.84
 optimisation between [QCUT,QGAM] = [ 10.12, 20.44] = [ 28.68,116.96] Ry 
 Optimized for a Real-space Cutoff    1.26 Angstroem

   l    n(q)    QCUT    max X(q) W(low)/X(q) W(high)/X(q)  e(spline) 
   0      8    10.119    13.410    0.28E-04    0.17E-04    0.51E-08
   0      8    10.119   140.052    0.10E-03    0.16E-03    0.42E-07
   1      7    10.119     9.624    0.38E-04    0.42E-05    0.15E-07
   1      7    10.119    53.353    0.23E-03    0.17E-03    0.13E-06
 Optimization of the real space projectors (new method)

 maximal supplied QI-value         = 16.25
 optimisation between [QCUT,QGAM] = [ 10.24, 20.48] = [ 29.35,117.42] Ry 
 Optimized for a Real-space Cutoff    1.55 Angstroem

   l    n(q)    QCUT    max X(q) W(low)/X(q) W(high)/X(q)  e(spline) 
   2      9    10.239     4.610    0.85E-04    0.29E-03    0.14E-06
   2      9    10.239     8.522    0.15E-03    0.50E-03    0.27E-06
   0     10    10.239    51.609    0.45E-04    0.99E-04    0.10E-06
   0     10    10.239    27.747    0.40E-04    0.93E-04    0.97E-07
   1      9    10.239    20.408    0.15E-03    0.78E-05    0.15E-06
   1      9    10.239    13.425    0.13E-03    0.71E-05    0.14E-06
 Optimization of the real space projectors (new method)

 maximal supplied QI-value         = 24.76
 optimisation between [QCUT,QGAM] = [ 10.15, 20.30] = [ 28.85,115.39] Ry 
 Optimized for a Real-space Cutoff    1.51 Angstroem

   l    n(q)    QCUT    max X(q) W(low)/X(q) W(high)/X(q)  e(spline) 
   0      9    10.150     4.192    0.32E-04    0.13E-04    0.13E-06
   0      9    10.150     8.473    0.18E-03    0.20E-03    0.43E-06
   1      9    10.150     2.474    0.32E-04    0.33E-04    0.64E-07
   1      9    10.150     3.912    0.13E-03    0.16E-03    0.33E-06
 Optimization of the real space projectors (new method)

 maximal supplied QI-value         = 19.84
 optimisation between [QCUT,QGAM] = [ 10.12, 20.44] = [ 28.68,116.96] Ry 
 Optimized for a Real-space Cutoff    1.38 Angstroem

   l    n(q)    QCUT    max X(q) W(low)/X(q) W(high)/X(q)  e(spline) 
   0      8    10.119     8.708    0.16E-04    0.67E-05    0.60E-08
   0      8    10.119   106.241    0.56E-04    0.11E-03    0.54E-07
   1      8    10.119     5.901    0.16E-04    0.16E-05    0.22E-07
   1      8    10.119    73.241    0.22E-03    0.17E-03    0.18E-06
PAW_PBE Al 04Jan2001                    :
 energy of atom  1       EATOM=  -53.5387
 kinetic energy error for atom=    0.0005 (will be added to EATOM!!)
 PAW_PBE Cu 22Jun2005                   :
 energy of atom  2       EATOM=-1390.9808
 kinetic energy error for atom=    0.0232 (will be added to EATOM!!)
 PAW_PBE O 08Apr2002                    :
 energy of atom  3       EATOM= -432.3788
 kinetic energy error for atom=    0.1156 (will be added to EATOM!!)
 PAW_PBE Si 05Jan2001                   :
 energy of atom  4       EATOM= -103.0669
 kinetic energy error for atom=    0.0012 (will be added to EATOM!!)
 
 
 POSCAR: Al Cu O Si                              
  positions in direct lattice
  velocities in cartesian coordinates
  No initial velocities read in
 exchange correlation table for  LEXCH =        8
   RHO(1)=    0.500       N(1)  =     2000
   RHO(2)=  100.500       N(2)  =     4000
 


--------------------------------------------------------------------------------------------------------


 ion  position               nearest neighbor table
   1  0.418  0.329  0.625-  75 1.61  15 1.61  39 1.61  63 1.61 116 3.02 114 3.17 131 3.17 142 3.20

   2  0.671  0.089  0.625-  76 1.61  16 1.61  40 1.61  64 1.61 115 3.02 116 3.17 129 3.17 140 3.20

   3  0.329  0.418  0.125-  72 1.61  18 1.61  42 1.61  62 1.61 110 3.02 108 3.17 134 3.17 145 3.20

   4  0.418  0.329  0.875-  78 1.61  24 1.61  48 1.61  66 1.61 124 3.02 122 3.17 131 3.17 145 3.20

   5  0.329  0.418  0.375-  81 1.61  33 1.61  57 1.61  71 1.61 121 3.02 119 3.17 134 3.17 142 3.20

   6  0.004  0.250  0.250-  91 1.61  53 1.61  38 1.61  85 1.61 134 3.05 121 3.17 110 3.17 133 3.18

   7  0.250  0.004  0.750-  94 1.61  56 1.61  47 1.61  89 1.61 131 3.05 124 3.17 116 3.17 130 3.18

   8  0.000  0.248  0.500- 106 1.61  99 1.61  22 1.61  29 1.61 142 3.11 140 3.11 115 3.20 121 3.20

   9  0.248  0.000  0.500- 105 1.61 101 1.61  28 1.61  23 1.61 142 3.11 141 3.11 120 3.20 116 3.20

  10  0.586  0.469  0.424-  81 2.24 119 2.76
  11  0.859  0.559  0.348-  58 2.03 125 2.56
  12  0.661  0.695  0.061- 108 1.61 139 1.61
  13  0.305  0.965  0.061- 109 1.61 137 1.61
  14  0.035  0.339  0.061- 110 1.61 138 1.61
  15  0.339  0.305  0.561-   1 1.61 142 1.61
  16  0.695  0.035  0.561-   2 1.61 140 1.61
  17  0.965  0.661  0.561- 111 1.61 141 1.61
  18  0.305  0.339  0.061-   3 1.61 145 1.61
  19  0.035  0.695  0.061- 112 1.61 143 1.61
  20  0.661  0.965  0.061- 113 1.61 144 1.61
  21  0.695  0.661  0.561- 114 1.61 146 1.61
  22  0.965  0.305  0.561- 115 1.61   8 1.61
  23  0.339  0.035  0.561- 116 1.61   9 1.61
  24  0.339  0.305  0.939-   4 1.61 145 1.61
  25  0.695  0.035  0.939- 117 1.61 144 1.61
  26  0.965  0.661  0.939- 118 1.61 143 1.61
  27  0.661  0.695  0.439- 119 1.61 146 1.61
  28  0.305  0.965  0.439- 120 1.61   9 1.61
  29  0.035  0.339  0.439- 121 1.61   8 1.61
  30  0.695  0.661  0.939- 122 1.61 139 1.61
  31  0.965  0.305  0.939- 123 1.61 138 1.61
  32  0.339  0.035  0.939- 124 1.61 137 1.61
  33  0.305  0.339  0.439-   5 1.61 142 1.61
  34  0.035  0.695  0.439- 125 1.61 141 1.61
  35  0.661  0.965  0.439- 126 1.61 140 1.61
  36  0.668  0.691  0.187- 108 1.61 128 1.61
  37  0.309  0.977  0.187- 109 1.61 127 1.61
  38  0.023  0.332  0.187- 110 1.61   6 1.61
  39  0.332  0.309  0.687-   1 1.61 131 1.61
  40  0.691  0.023  0.687-   2 1.61 129 1.61
  41  0.977  0.668  0.687- 111 1.61 130 1.61
  42  0.309  0.332  0.187-   3 1.61 134 1.61
  43  0.023  0.691  0.187- 112 1.61 132 1.61
  44  0.668  0.977  0.187- 113 1.61 133 1.61
  45  0.691  0.668  0.687- 114 1.61 136 1.61
  46  0.977  0.309  0.687- 115 1.61 135 1.61
  47  0.332  0.023  0.687- 116 1.61   7 1.61
  48  0.332  0.309  0.813-   4 1.61 131 1.61
  49  0.691  0.023  0.813- 117 1.61 129 1.61
  50  0.977  0.668  0.813- 118 1.61 130 1.61
  51  0.668  0.691  0.313- 119 1.61 128 1.61
  52  0.309  0.977  0.313- 120 1.61 127 1.61
  53  0.023  0.332  0.313- 121 1.61   6 1.61
  54  0.691  0.668  0.813- 122 1.61 136 1.61
  55  0.977  0.309  0.813- 123 1.61 135 1.61
  56  0.332  0.023  0.813- 124 1.61   7 1.61
  57  0.309  0.332  0.313-   5 1.61 134 1.61
  58  0.023  0.691  0.313- 125 1.61 132 1.61  11 2.03
  59  0.668  0.977  0.313- 126 1.61 133 1.61
  60  0.530  0.765  0.129- 113 1.61 108 1.61
  61  0.235  0.765  0.129- 112 1.61 109 1.61
  62  0.235  0.470  0.129-   3 1.61 110 1.61
  63  0.470  0.235  0.629- 116 1.61   1 1.61
  64  0.765  0.235  0.629- 115 1.61   2 1.61
  65  0.765  0.530  0.629- 114 1.61 111 1.61
  66  0.470  0.235  0.871- 124 1.61   4 1.61
  67  0.765  0.235  0.871- 123 1.61 117 1.61
  68  0.765  0.530  0.871- 122 1.61 118 1.61
  69  0.530  0.765  0.371- 126 1.61 119 1.61
  70  0.235  0.765  0.371- 125 1.61 120 1.61
  71  0.235  0.470  0.371-   5 1.61 121 1.61
  72  0.468  0.531  0.125-   3 1.61 108 1.61
  73  0.469  0.937  0.125- 113 1.61 109 1.61
  74  0.063  0.532  0.125- 112 1.61 110 1.61
  75  0.532  0.469  0.625- 114 1.61   1 1.61
  76  0.531  0.063  0.625- 116 1.61   2 1.61
  77  0.937  0.468  0.625- 115 1.61 111 1.61
  78  0.532  0.469  0.875- 122 1.61   4 1.61
  79  0.531  0.063  0.875- 124 1.61 117 1.61
  80  0.937  0.468  0.875- 123 1.61 118 1.61
  81  0.468  0.531  0.375-   5 1.61 119 1.61  10 2.24
  82  0.469  0.937  0.375- 126 1.61 120 1.61
  83  0.063  0.532  0.375- 125 1.61 121 1.61
  84  0.101  0.899  0.250- 127 1.61 132 1.61
  85  0.101  0.203  0.250- 134 1.61   6 1.61
  86  0.797  0.899  0.250- 128 1.61 133 1.61
  87  0.899  0.101  0.750- 129 1.61 135 1.61
  88  0.899  0.797  0.750- 136 1.61 130 1.61
  89  0.203  0.101  0.750- 131 1.61   7 1.61
  90  0.268  0.134  0.250- 134 1.61 127 1.61
  91  0.866  0.134  0.250-   6 1.61 133 1.61
  92  0.866  0.732  0.250- 128 1.61 132 1.61
  93  0.732  0.866  0.750- 136 1.61 129 1.61
  94  0.134  0.866  0.750-   7 1.61 130 1.61
  95  0.134  0.268  0.750- 131 1.61 135 1.61
  96  0.116  0.884  0.982- 137 1.61 143 1.61
  97  0.116  0.232  0.982- 138 1.61 145 1.61
  98  0.768  0.884  0.982- 139 1.61 144 1.61
  99  0.884  0.116  0.482- 140 1.61   8 1.61
 100  0.884  0.768  0.482- 141 1.61 146 1.61
 101  0.232  0.116  0.482- 142 1.61   9 1.61
 102  0.884  0.116  0.018- 144 1.61 138 1.61
 103  0.884  0.768  0.018- 143 1.61 139 1.61
 104  0.232  0.116  0.018- 145 1.61 137 1.61
 105  0.116  0.884  0.518-   9 1.61 141 1.61
 106  0.116  0.232  0.518-   8 1.61 142 1.61
 107  0.768  0.884  0.518- 146 1.61 140 1.61
 108  0.582  0.671  0.125-  72 1.61  12 1.61  36 1.61  60 1.61 113 3.02   3 3.17
 109  0.329  0.911  0.125-  73 1.61  13 1.61  37 1.61  61 1.61 112 3.02
 110  0.089  0.418  0.125-  74 1.61  14 1.61  38 1.61  62 1.61   3 3.02   6 3.17
 111  0.911  0.582  0.625-  77 1.61  17 1.61  41 1.61  65 1.61 114 3.02
 112  0.089  0.671  0.125-  74 1.61  19 1.61  43 1.61  61 1.61 109 3.02
 113  0.582  0.911  0.125-  73 1.61  20 1.61  44 1.61  60 1.61 108 3.02
 114  0.671  0.582  0.625-  75 1.61  21 1.61  45 1.61  65 1.61 111 3.02   1 3.17
 115  0.911  0.329  0.625-  77 1.61  22 1.61  46 1.61  64 1.61   2 3.02   8 3.20
 116  0.418  0.089  0.625-  76 1.61  23 1.61  47 1.61  63 1.61   1 3.02   2 3.17   7 3.17   9 3.20

 117  0.671  0.089  0.875-  79 1.61  25 1.61  49 1.61  67 1.61 123 3.02
 118  0.911  0.582  0.875-  80 1.61  26 1.61  50 1.61  68 1.61 122 3.02
 119  0.582  0.671  0.375-  81 1.61  27 1.61  51 1.61  69 1.61  10 2.76 126 3.02   5 3.17
 120  0.329  0.911  0.375-  82 1.61  28 1.61  52 1.61  70 1.61 125 3.02   9 3.20
 121  0.089  0.418  0.375-  83 1.61  29 1.61  53 1.61  71 1.61   5 3.02   6 3.17   8 3.20
 122  0.671  0.582  0.875-  78 1.61  30 1.61  54 1.61  68 1.61 118 3.02   4 3.17
 123  0.911  0.329  0.875-  80 1.61  31 1.61  55 1.61  67 1.61 117 3.02
 124  0.418  0.089  0.875-  79 1.61  32 1.61  56 1.61  66 1.61   4 3.02   7 3.17
 125  0.089  0.671  0.375-  83 1.61  34 1.61  58 1.61  70 1.61  11 2.56 120 3.02
 126  0.582  0.911  0.375-  82 1.61  35 1.61  59 1.61  69 1.61 119 3.02
 127  0.247  0.996  0.250-  90 1.61  52 1.61  37 1.61  84 1.61 132 3.05
 128  0.750  0.753  0.250-  92 1.61  51 1.61  36 1.61  86 1.61 133 3.05
 129  0.753  0.004  0.750-  93 1.61  49 1.61  40 1.61  87 1.61 135 3.05   2 3.17
 130  0.996  0.750  0.750-  94 1.61  50 1.61  41 1.61  88 1.61 136 3.05   7 3.18
 131  0.250  0.247  0.750-  95 1.61  48 1.61  39 1.61  89 1.61   7 3.05   4 3.17   1 3.17
 132  0.004  0.753  0.250-  92 1.61  58 1.61  43 1.61  84 1.61 127 3.05
 133  0.750  0.996  0.250-  91 1.61  59 1.61  44 1.61  86 1.61 128 3.05   6 3.18
 134  0.247  0.250  0.250-  90 1.61  57 1.61  42 1.61  85 1.61   6 3.05   5 3.17   3 3.17
 135  0.996  0.247  0.750-  95 1.61  55 1.61  46 1.61  87 1.61 129 3.05
 136  0.753  0.750  0.750-  93 1.61  54 1.61  45 1.61  88 1.61 130 3.05
 137  0.248  0.000  0.000-  96 1.61 104 1.61  13 1.61  32 1.61 145 3.11 143 3.11
 138  0.000  0.248  0.000-  97 1.61 102 1.61  31 1.61  14 1.61 145 3.11 144 3.11
 139  0.752  0.752  0.000-  98 1.61 103 1.61  12 1.61  30 1.61 143 3.11 144 3.11
 140  0.752  0.000  0.500-  99 1.61 107 1.61  16 1.61  35 1.61 146 3.11   8 3.11   2 3.20
 141  0.000  0.752  0.500- 100 1.61 105 1.61  34 1.61  17 1.61 146 3.11   9 3.11
 142  0.248  0.248  0.500- 101 1.61 106 1.61  15 1.61  33 1.61   8 3.11   9 3.11   1 3.20   5 3.20

 143  0.000  0.752  0.000- 103 1.61  96 1.61  19 1.61  26 1.61 139 3.11 137 3.11
 144  0.752  0.000  0.000- 102 1.61  98 1.61  25 1.61  20 1.61 139 3.11 138 3.11
 145  0.248  0.248  0.000- 104 1.61  97 1.61  18 1.61  24 1.61 137 3.11 138 3.11   3 3.20   4 3.20

 146  0.752  0.752  0.500- 107 1.61 100 1.61  21 1.61  27 1.61 140 3.11 141 3.11
 

IMPORTANT INFORMATION: All symmetrisations will be switched off!
NOSYMM: (Re-)initialisation of all symmetry stuff for point group C_1.

 
 
 KPOINTS: Automatic                               

Automatic generation of k-mesh.
Space group operators:
 irot       det(A)        alpha          n_x          n_y          n_z        tau_x        tau_y        tau_z
    1     1.000000     0.000000     1.000000     0.000000     0.000000     0.000000     0.000000     0.000000
 
 Subroutine IBZKPT returns following result:
 ===========================================
 
 Found      1 irreducible k-points:
 
 Following reciprocal coordinates:
            Coordinates               Weight
  0.000000  0.000000  0.000000      1.000000
 
 Following cartesian coordinates:
            Coordinates               Weight
  0.000000  0.000000  0.000000      1.000000
 


--------------------------------------------------------------------------------------------------------




 Dimension of arrays:
   k-points           NKPTS =      1   k-points in BZ     NKDIM =      1   number of bands    NBANDS=    468
   number of dos      NEDOS =    301   number of ions     NIONS =    146
   non local maximal  LDIM  =      6   non local SUM 2l+1 LMDIM =     18
   total plane-waves  NPLWV = 987840
   max r-space proj   IRMAX =   5525   max aug-charges    IRDMAX=  13760
   dimension x,y,z NGX =    84 NGY =   84 NGZ =  140
   dimension x,y,z NGXF=   168 NGYF=  168 NGZF=  280
   support grid    NGXF=   168 NGYF=  168 NGZF=  280
   ions per type =               9   2  96  39
   NGX,Y,Z   is equivalent  to a cutoff of  11.13, 11.13, 11.20 a.u.
   NGXF,Y,Z  is equivalent  to a cutoff of  22.26, 22.26, 22.39 a.u.

 SYSTEM =  ZEOLITE_AFG_energy_SO                   
 POSCAR =  Al Cu O Si                              

 Startparameter for this run:
   NWRITE =      2    write-flag & timer
   PREC   = accura    normal or accurate (medium, high low for compatibility)
   ISTART =      0    job   : 0-new  1-cont  2-samecut
   ICHARG =      2    charge: 1-file 2-atom 10-const
   ISPIN  =      1    spin polarized calculation?
   LNONCOLLINEAR =      F non collinear calculations
   LSORBIT =      F    spin-orbit coupling
   INIWAV =      1    electr: 0-lowe 1-rand  2-diag
   LASPH  =      F    aspherical Exc in radial PAW
   METAGGA=      F    non-selfconsistent MetaGGA calc.

 Electronic Relaxation 1
   ENCUT  =  400.0 eV  29.40 Ry    5.42 a.u.  20.46 20.46 33.90*2*pi/ulx,y,z
   ENINI  =  400.0     initial cutoff
   ENAUG  =  605.4 eV  augmentation charge cutoff
   NELM   =    100;   NELMIN=  5; NELMDL=-12     # of ELM steps 
   EDIFF  = 0.1E-05   stopping-criterion for ELM
   LREAL  =      T    real-space projection
   NLSPLINE    = F    spline interpolate recip. space projectors
   LCOMPAT=      F    compatible to vasp.4.4
   GGA_COMPAT  = T    GGA compatible to vasp.4.4-vasp.4.6
   LMAXPAW     = -100 max onsite density
   LMAXMIX     =    2 max onsite mixed and CHGCAR
   VOSKOWN=      0    Vosko Wilk Nusair interpolation
   ROPT   =   -0.00025  -0.00025  -0.00025  -0.00025
 Ionic relaxation
   EDIFFG = -.5E-02   stopping-criterion for IOM
   NSW    =      0    number of steps for IOM
   NBLOCK =      1;   KBLOCK =      1    inner block; outer block 
   IBRION =     -1    ionic relax: 0-MD 1-quasi-New 2-CG
   NFREE  =      2    steps in history (QN), initial steepest desc. (CG)
   ISIF   =      2    stress and relaxation
   IWAVPR =     10    prediction:  0-non 1-charg 2-wave 3-comb
   ISYM   =      0    0-nonsym 1-usesym 2-fastsym
   LCORR  =      T    Harris-Foulkes like correction to forces

   POTIM  = 0.0150    time-step for ionic-motion
   TEIN   =    0.0    initial temperature
   TEBEG  =    0.0;   TEEND  =   0.0 temperature during run
   SMASS  =  -3.00    Nose mass-parameter (am)
   estimated Nose-frequenzy (Omega)   =  0.10E-29 period in steps =****** mass=  -0.360E-26a.u.
   SCALEE = 1.0000    scale energy and forces
   NPACO  =    256;   APACO  = 16.0  distance and # of slots for P.C.
   PSTRESS=    0.0 pullay stress

  Mass of Ions in am
   POMASS =  26.98 63.55 16.00 28.09
  Ionic Valenz
   ZVAL   =   3.00 11.00  6.00  4.00
  Atomic Wigner-Seitz radii
   RWIGS  =  -1.00 -1.00 -1.00 -1.00
  virtual crystal weights 
   VCA    =   1.00  1.00  1.00  1.00
   NELECT =     781.0000    total number of electrons
   NUPDOWN=      -1.0000    fix difference up-down

 DOS related values:
   EMIN   =  10.00;   EMAX   =-10.00  energy-range for DOS
   EFERMI =   0.00
   ISMEAR =     0;   SIGMA  =   0.20  broadening in eV -4-tet -1-fermi 0-gaus

 Electronic relaxation 2 (details)
   IALGO  =     48    algorithm
   LDIAG  =      T    sub-space diagonalisation (order eigenvalues)
   LSUBROT=      F    optimize rotation matrix (better conditioning)
   TURBO    =      0    0=normal 1=particle mesh
   IRESTART =      0    0=no restart 2=restart with 2 vectors
   NREBOOT  =      0    no. of reboots
   NMIN     =      0    reboot dimension
   EREF     =   0.00    reference energy to select bands
   IMIX   =      4    mixing-type and parameters
     AMIX     =   0.40;   BMIX     =  1.00
     AMIX_MAG =   1.60;   BMIX_MAG =  1.00
     AMIN     =   0.10
     WC   =   100.;   INIMIX=   1;  MIXPRE=   1;  MAXMIX= -45

 Intra band minimization:
   WEIMIN = 0.0000     energy-eigenvalue tresh-hold
   EBREAK =  0.53E-09  absolut break condition
   DEPER  =   0.30     relativ break condition  

   TIME   =   0.40     timestep for ELM

  volume/ion in A,a.u.               =      19.42       131.03
  Fermi-wavevector in a.u.,A,eV,Ry     =   1.065256  2.013042 15.439495  1.134771
  Thomas-Fermi vector in A             =   2.200802
 
 Write flags
   LWAVE        =      F    write WAVECAR
   LDOWNSAMPLE  =      F    k-point downsampling of WAVECAR
   LCHARG       =      F    write CHGCAR
   LVTOT        =      F    write LOCPOT, total local potential
   LVHAR        =      F    write LOCPOT, Hartree potential only
   LELF         =      F    write electronic localiz. function (ELF)
   LORBIT       =      0    0 simple, 1 ext, 2 COOP (PROOUT), +10 PAW based schemes


 Dipole corrections
   LMONO  =      F    monopole corrections only (constant potential shift)
   LDIPOL =      F    correct potential (dipole corrections)
   IDIPOL =      0    1-x, 2-y, 3-z, 4-all directions 
   EPSILON=  1.0000000 bulk dielectric constant

 Exchange correlation treatment:
   GGA     =    PE    GGA type
   LEXCH   =     8    internal setting for exchange type
   VOSKOWN=      0    Vosko Wilk Nusair interpolation
   LHFCALC =     F    Hartree Fock is set to
   LHFONE  =     F    Hartree Fock one center treatment
   AEXX    =    0.0000 exact exchange contribution

 Linear response parameters
   LEPSILON=     F    determine dielectric tensor
   LRPA    =     F    only Hartree local field effects (RPA)
   LNABLA  =     F    use nabla operator in PAW spheres
   LVEL    =     F    velocity operator in full k-point grid
   LINTERFAST=   F  fast interpolation
   KINTER  =     0    interpolate to denser k-point grid
   CSHIFT  =0.1000    complex shift for real part using Kramers Kronig
   OMEGAMAX=  -1.0    maximum frequency
   DEG_THRESHOLD= 0.2000000E-02 threshold for treating states as degnerate
   RTIME   =   -0.100 relaxation time in fs
  (WPLASMAI=    0.000 imaginary part of plasma frequency in eV, 0.658/RTIME)
   DFIELD  = 0.0000000 0.0000000 0.0000000 field for delta impulse in time
 
 Orbital magnetization related:
   ORBITALMAG=     F  switch on orbital magnetization
   LCHIMAG   =     F  perturbation theory with respect to B field
   DQ        =  0.001000  dq finite difference perturbation B field
   LLRAUG    =     F  two centre corrections for induced B field



--------------------------------------------------------------------------------------------------------


 Static calculation
 charge density and potential will be updated during run
 non-spin polarized calculation
 RMM-DIIS sequential band-by-band
 perform sub-space diagonalisation
    before iterative eigenvector-optimisation
 modified Broyden-mixing scheme, WC =      100.0
 initial mixing is a Kerker type mixing with AMIX =  0.4000 and BMIX =      1.0000
 Hartree-type preconditioning will be used
 using additional bands           77
 real space projection scheme for non local part
 use partial core corrections
 calculate Harris-corrections to forces 
   (improved forces if not selfconsistent)
 use gradient corrections 
 use of overlap-Matrix (Vanderbilt PP)
 Gauss-broadening in eV      SIGMA  =   0.20


--------------------------------------------------------------------------------------------------------


  energy-cutoff  :      400.00
  volume of cell :     2834.74
      direct lattice vectors                 reciprocal lattice vectors
     6.274000000-10.866886767  0.000000000     0.079693975 -0.046011338  0.000000000
     6.274000000 10.866886767  0.000000000     0.079693975  0.046011338  0.000000000
     0.000000000  0.000000000 20.789000000     0.000000000  0.000000000  0.048102362

  length of vectors
    12.548000000 12.548000000 20.789000000     0.092022676  0.092022676  0.048102362


 
 k-points in units of 2pi/SCALE and weight: Automatic                               
   0.00000000  0.00000000  0.00000000       1.000
 
 k-points in reciprocal lattice and weights: Automatic                               
   0.00000000  0.00000000  0.00000000       1.000
 
 position of ions in fractional coordinates (direct lattice) 
   0.41830000  0.32940000  0.62540000
   0.67060000  0.08890000  0.62540000
   0.32940000  0.41830000  0.12540000
   0.41830000  0.32940000  0.87460000
   0.32940000  0.41830000  0.37460000
   0.00350000  0.25010000  0.25000000
   0.25010000  0.00350000  0.75000000
   0.00000000  0.24780000  0.50000000
   0.24780000  0.00000000  0.50000000
   0.58628211  0.46906734  0.42421019
   0.85858878  0.55909759  0.34779852
   0.66080000  0.69530000  0.06060000
   0.30470000  0.96550000  0.06060000
   0.03450000  0.33920000  0.06060000
   0.33920000  0.30470000  0.56060000
   0.69530000  0.03450000  0.56060000
   0.96550000  0.66080000  0.56060000
   0.30470000  0.33920000  0.06060000
   0.03450000  0.69530000  0.06060000
   0.66080000  0.96550000  0.06060000
   0.69530000  0.66080000  0.56060000
   0.96550000  0.30470000  0.56060000
   0.33920000  0.03450000  0.56060000
   0.33920000  0.30470000  0.93940000
   0.69530000  0.03450000  0.93940000
   0.96550000  0.66080000  0.93940000
   0.66080000  0.69530000  0.43940000
   0.30470000  0.96550000  0.43940000
   0.03450000  0.33920000  0.43940000
   0.69530000  0.66080000  0.93940000
   0.96550000  0.30470000  0.93940000
   0.33920000  0.03450000  0.93940000
   0.30470000  0.33920000  0.43940000
   0.03450000  0.69530000  0.43940000
   0.66080000  0.96550000  0.43940000
   0.66800000  0.69120000  0.18680000
   0.30880000  0.97680000  0.18680000
   0.02320000  0.33200000  0.18680000
   0.33200000  0.30880000  0.68680000
   0.69120000  0.02320000  0.68680000
   0.97680000  0.66800000  0.68680000
   0.30880000  0.33200000  0.18680000
   0.02320000  0.69120000  0.18680000
   0.66800000  0.97680000  0.18680000
   0.69120000  0.66800000  0.68680000
   0.97680000  0.30880000  0.68680000
   0.33200000  0.02320000  0.68680000
   0.33200000  0.30880000  0.81320000
   0.69120000  0.02320000  0.81320000
   0.97680000  0.66800000  0.81320000
   0.66800000  0.69120000  0.31320000
   0.30880000  0.97680000  0.31320000
   0.02320000  0.33200000  0.31320000
   0.69120000  0.66800000  0.81320000
   0.97680000  0.30880000  0.81320000
   0.33200000  0.02320000  0.81320000
   0.30880000  0.33200000  0.31320000
   0.02320000  0.69120000  0.31320000
   0.66800000  0.97680000  0.31320000
   0.53030000  0.76520000  0.12880000
   0.23480000  0.76510000  0.12880000
   0.23490000  0.46970000  0.12880000
   0.46970000  0.23480000  0.62880000
   0.76520000  0.23490000  0.62880000
   0.76510000  0.53030000  0.62880000
   0.46970000  0.23480000  0.87120000
   0.76520000  0.23490000  0.87120000
   0.76510000  0.53030000  0.87120000
   0.53030000  0.76520000  0.37120000
   0.23480000  0.76510000  0.37120000
   0.23490000  0.46970000  0.37120000
   0.46850000  0.53140000  0.12530000
   0.46860000  0.93710000  0.12530000
   0.06290000  0.53150000  0.12530000
   0.53150000  0.46860000  0.62530000
   0.53140000  0.06290000  0.62530000
   0.93710000  0.46850000  0.62530000
   0.53150000  0.46860000  0.87470000
   0.53140000  0.06290000  0.87470000
   0.93710000  0.46850000  0.87470000
   0.46850000  0.53140000  0.37470000
   0.46860000  0.93710000  0.37470000
   0.06290000  0.53150000  0.37470000
   0.10130000  0.89870000  0.25000000
   0.10130000  0.20260000  0.25000000
   0.79740000  0.89870000  0.25000000
   0.89870000  0.10130000  0.75000000
   0.89870000  0.79740000  0.75000000
   0.20260000  0.10130000  0.75000000
   0.26840000  0.13420000  0.25000000
   0.86580000  0.13420000  0.25000000
   0.86580000  0.73160000  0.25000000
   0.73160000  0.86580000  0.75000000
   0.13420000  0.86580000  0.75000000
   0.13420000  0.26840000  0.75000000
   0.11590000  0.88420000  0.98190000
   0.11580000  0.23170000  0.98190000
   0.76830000  0.88410000  0.98190000
   0.88410000  0.11580000  0.48190000
   0.88420000  0.76830000  0.48190000
   0.23170000  0.11590000  0.48190000
   0.88410000  0.11580000  0.01810000
   0.88420000  0.76830000  0.01810000
   0.23170000  0.11590000  0.01810000
   0.11590000  0.88420000  0.51810000
   0.11580000  0.23170000  0.51810000
   0.76830000  0.88410000  0.51810000
   0.58170000  0.67060000  0.12540000
   0.32940000  0.91110000  0.12540000
   0.08890000  0.41830000  0.12540000
   0.91110000  0.58170000  0.62540000
   0.08890000  0.67060000  0.12540000
   0.58170000  0.91110000  0.12540000
   0.67060000  0.58170000  0.62540000
   0.91110000  0.32940000  0.62540000
   0.41830000  0.08890000  0.62540000
   0.67060000  0.08890000  0.87460000
   0.91110000  0.58170000  0.87460000
   0.58170000  0.67060000  0.37460000
   0.32940000  0.91110000  0.37460000
   0.08890000  0.41830000  0.37460000
   0.67060000  0.58170000  0.87460000
   0.91110000  0.32940000  0.87460000
   0.41830000  0.08890000  0.87460000
   0.08890000  0.67060000  0.37460000
   0.58170000  0.91110000  0.37460000
   0.24660000  0.99650000  0.25000000
   0.74990000  0.75340000  0.25000000
   0.75340000  0.00350000  0.75000000
   0.99650000  0.74990000  0.75000000
   0.25010000  0.24660000  0.75000000
   0.00350000  0.75340000  0.25000000
   0.74990000  0.99650000  0.25000000
   0.24660000  0.25010000  0.25000000
   0.99650000  0.24660000  0.75000000
   0.75340000  0.74990000  0.75000000
   0.24780000  0.00000000  0.00000000
   0.00000000  0.24780000  0.00000000
   0.75220000  0.75220000  0.00000000
   0.75220000  0.00000000  0.50000000
   0.00000000  0.75220000  0.50000000
   0.24780000  0.24780000  0.50000000
   0.00000000  0.75220000  0.00000000
   0.75220000  0.00000000  0.00000000
   0.24780000  0.24780000  0.00000000
   0.75220000  0.75220000  0.50000000
 
 position of ions in cartesian coordinates  (Angst):
   4.69106980 -0.96606623 13.00144060
   4.76510300 -6.32126803 13.00144060
   4.69106980  0.96606623  2.60694060
   4.69106980 -0.96606623 18.18205940
   4.69106980  0.96606623  7.78755940
   1.59108640  2.67977428  5.19725000
   1.59108640 -2.67977428 15.59175000
   1.55469720  2.69281454 10.39450000
   1.55469720 -2.69281454 10.39450000
   6.62126242 -1.27375968  8.81890564
   8.89456427 -3.25453687  7.23038342
   8.50817140  0.37490759  1.25981340
   7.96923480  7.18083878  1.25981340
   2.34459380  3.31114040  1.25981340
   4.03982860 -0.37490759 11.65431340
   4.57876520 -7.18083878 11.65431340
  10.20340620 -3.31114040 11.65431340
   4.03982860  0.37490759  1.25981340
   4.57876520  7.18083878  1.25981340
  10.20340620  3.31114040  1.25981340
   8.50817140 -0.37490759 11.65431340
   7.96923480 -7.18083878 11.65431340
   2.34459380 -3.31114040 11.65431340
   4.03982860 -0.37490759 19.52918660
   4.57876520 -7.18083878 19.52918660
  10.20340620 -3.31114040 19.52918660
   8.50817140  0.37490759  9.13468660
   7.96923480  7.18083878  9.13468660
   2.34459380  3.31114040  9.13468660
   8.50817140 -0.37490759 19.52918660
   7.96923480 -7.18083878 19.52918660
   2.34459380 -3.31114040 19.52918660
   4.03982860  0.37490759  9.13468660
   4.57876520  7.18083878  9.13468660
  10.20340620  3.31114040  9.13468660
   8.52762080  0.25211177  3.88338520
   8.06585440  7.25908036  3.88338520
   2.22852480  3.35569463  3.88338520
   4.02037920 -0.25211177 14.27788520
   4.48214560 -7.25908036 14.27788520
  10.31947520 -3.35569463 14.27788520
   4.02037920  0.25211177  3.88338520
   4.48214560  7.25908036  3.88338520
  10.31947520  3.35569463  3.88338520
   8.52762080 -0.25211177 14.27788520
   8.06585440 -7.25908036 14.27788520
   2.22852480 -3.35569463 14.27788520
   4.02037920 -0.25211177 16.90561480
   4.48214560 -7.25908036 16.90561480
  10.31947520 -3.35569463 16.90561480
   8.52762080  0.25211177  6.51111480
   8.06585440  7.25908036  6.51111480
   2.22852480  3.35569463  6.51111480
   8.52762080 -0.25211177 16.90561480
   8.06585440 -7.25908036 16.90561480
   2.22852480 -3.35569463 16.90561480
   4.02037920  0.25211177  6.51111480
   4.48214560  7.25908036  6.51111480
  10.31947520  3.35569463  6.51111480
   8.12796700  2.55263170  2.67762320
   6.27337260  5.76271005  2.67762320
   4.42066040  2.55154501  2.67762320
   4.42003300 -2.55263170 13.07212320
   6.27462740 -5.76271005 13.07212320
   8.12733960 -2.55154501 13.07212320
   4.42003300 -2.55263170 18.11137680
   6.27462740 -5.76271005 18.11137680
   8.12733960 -2.55154501 18.11137680
   8.12796700  2.55263170  7.71687680
   6.27337260  5.76271005  7.71687680
   4.42066040  2.55154501  7.71687680
   6.27337260  0.68352718  2.60486170
   8.81936180  5.09113645  2.60486170
   3.72926560  5.09222314  2.60486170
   6.27462740 -0.68352718 12.99936170
   3.72863820 -5.09113645 12.99936170
   8.81873440 -5.09222314 12.99936170
   6.27462740 -0.68352718 18.18413830
   3.72863820 -5.09113645 18.18413830
   8.81873440 -5.09222314 18.18413830
   6.27337260  0.68352718  7.78963830
   8.81936180  5.09113645  7.78963830
   3.72926560  5.09222314  7.78963830
   6.27400000  8.66525551  5.19725000
   1.90666860  1.10081563  5.19725000
  10.64133140  1.10081563  5.19725000
   6.27400000 -8.66525551 15.59175000
  10.64133140 -1.10081563 15.59175000
   1.90666860 -1.10081563 15.59175000
   2.52591240 -1.45833620  5.19725000
   6.27400000 -7.95021436  5.19725000
  10.02208760 -1.45833620  5.19725000
  10.02208760  1.45833620 15.59175000
   6.27400000  7.95021436 15.59175000
   2.52591240  1.45833620 15.59175000
   6.27462740  8.34902910 20.41271910
   2.18021500  1.25947218 20.41271910
  10.36715760  1.25838549 20.41271910
   6.27337260 -8.34902910 10.01821910
  10.36778500 -1.25947218 10.01821910
   2.18084240 -1.25838549 10.01821910
   6.27337260 -8.34902910  0.37628090
  10.36778500 -1.25947218  0.37628090
   2.18084240 -1.25838549  0.37628090
   6.27462740  8.34902910 10.77078090
   2.18021500  1.25947218 10.77078090
  10.36715760  1.25838549 10.77078090
   7.85693020  0.96606623  2.60694060
   7.78289700  6.32126803  2.60694060
   3.18217280  3.57955250  2.60694060
   9.36582720 -3.57955250 13.00144060
   4.76510300  6.32126803  2.60694060
   9.36582720  3.57955250  2.60694060
   7.85693020 -0.96606623 13.00144060
   7.78289700 -6.32126803 13.00144060
   3.18217280 -3.57955250 13.00144060
   4.76510300 -6.32126803 18.18205940
   9.36582720 -3.57955250 18.18205940
   7.85693020  0.96606623  7.78755940
   7.78289700  6.32126803  7.78755940
   3.18217280  3.57955250  7.78755940
   7.85693020 -0.96606623 18.18205940
   7.78289700 -6.32126803 18.18205940
   3.18217280 -3.57955250 18.18205940
   4.76510300  6.32126803  7.78755940
   9.36582720  3.57955250  7.78755940
   7.79920940  8.14907839  5.19725000
   9.43170420  0.03803410  5.19725000
   4.74879060 -8.14907839 15.59175000
  10.95691360 -2.67977428 15.59175000
   3.11629580 -0.03803410 15.59175000
   4.74879060  8.14907839  5.19725000
  10.95691360  2.67977428  5.19725000
   3.11629580  0.03803410  5.19725000
   7.79920940 -8.14907839 15.59175000
   9.43170420 -0.03803410 15.59175000
   1.55469720 -2.69281454  0.00000000
   1.55469720  2.69281454  0.00000000
   9.43860560  0.00000000  0.00000000
   4.71930280 -8.17407223 10.39450000
   4.71930280  8.17407223 10.39450000
   3.10939440  0.00000000 10.39450000
   4.71930280  8.17407223  0.00000000
   4.71930280 -8.17407223  0.00000000
   3.10939440  0.00000000  0.00000000
   9.43860560  0.00000000 10.39450000
 


--------------------------------------------------------------------------------------------------------


 k-point  1 :   0.0000 0.0000 0.0000  plane waves:   51577

 maximum and minimum number of plane-waves per node :      4300     4296

 maximum number of plane-waves:     51577
 maximum index in each direction: 
   IXMAX=   20   IYMAX=   20   IZMAX=   33
   IXMIN=  -20   IYMIN=  -20   IZMIN=  -33


 real space projection operators:
  total allocation   :      41367.72 KBytes
  max/ min on nodes  :       3490.33       3403.31


 parallel 3D FFT for wavefunctions:
    minimum data exchange during FFTs selected (reduces bandwidth)
 parallel 3D FFT for charge:
    minimum data exchange during FFTs selected (reduces bandwidth)


 total amount of memory used by VASP MPI-rank0   156709. kBytes
=======================================================================

   base      :      30000. kBytes
   nonlr-proj:      17909. kBytes
   fftplans  :      24655. kBytes
   grid      :      50981. kBytes
   one-center:        202. kBytes
   wavefun   :      32962. kBytes
 
     INWAV:  cpu time    0.0000: real time    0.0003
 Broyden mixing: mesh for mixing (old mesh)
   NGX = 41   NGY = 41   NGZ = 67
  (NGX  =168   NGY  =168   NGZ  =280)
  gives a total of 112627 points

 initial charge density was supplied:
 charge density of overlapping atoms calculated
 number of electron     781.0000000 magnetization 
 keeping initial charge density in first step


--------------------------------------------------------------------------------------------------------


 Maximum index for non-local projection operator          457
 Maximum index for augmentation-charges         1162 (set IRDMAX)


--------------------------------------------------------------------------------------------------------


 First call to EWALD:  gamma=   0.125
 Maximum number of real-space cells 3x 3x 2
 Maximum number of reciprocal cells 2x 2x 4

    FEWALD:  cpu time    0.0150: real time    0.0144


--------------------------------------- Iteration      1(   1)  ---------------------------------------


    POTLOK:  cpu time    0.7249: real time    0.7307
    SETDIJ:  cpu time    0.0290: real time    0.0287
    EDDIAG:  cpu time    3.2385: real time    3.3023
  RMM-DIIS:  cpu time    5.1722: real time    5.1726
    ORTHCH:  cpu time    0.6309: real time    0.6309
       DOS:  cpu time    0.0020: real time    0.0020
    --------------------------------------------
      LOOP:  cpu time    9.7975: real time    9.8671

 eigenvalue-minimisations  :   468
 total energy-change (2. order) : 0.1146174E+05  (-0.2577718E+05)
 number of electron     781.0000000 magnetization 
 augmentation part      781.0000000 magnetization 

 Free energy of the ion-electron system (eV)
  ---------------------------------------------------
  alpha Z        PSCENC =       736.72272012
  Ewald energy   TEWEN  =    -12723.00681630
  -Hartree energ DENC   =    -31548.59743679
  -exchange      EXHF   =         0.00000000
  -V(xc)+E(xc)   XCENC  =      2188.88061166
  PAW double counting   =     27678.37482361   -27093.89052547
  entropy T*S    EENTRO =        -0.70897402
  eigenvalues    EBANDS =      3443.37309747
  atomic energy  EATOM  =     48780.58959162
  Solvation  Ediel_sol  =         0.00000000
  ---------------------------------------------------
  free energy    TOTEN  =     11461.73709189 eV

  energy without entropy =    11462.44606592  energy(sigma->0) =    11462.09157891


--------------------------------------------------------------------------------------------------------




--------------------------------------- Iteration      1(   2)  ---------------------------------------


    EDDIAG:  cpu time    2.7366: real time    2.7370
  RMM-DIIS:  cpu time    5.1712: real time    5.1727
    ORTHCH:  cpu time    0.6299: real time    0.6291
       DOS:  cpu time    0.0020: real time    0.0020
    --------------------------------------------
      LOOP:  cpu time    8.5397: real time    8.5408

 eigenvalue-minimisations  :   468
 total energy-change (2. order) :-0.7206780E+04  (-0.8576923E+04)
 number of electron     781.0000000 magnetization 
 augmentation part      781.0000000 magnetization 

 Free energy of the ion-electron system (eV)
  ---------------------------------------------------
  alpha Z        PSCENC =       736.72272012
  Ewald energy   TEWEN  =    -12723.00681630
  -Hartree energ DENC   =    -31548.59743679
  -exchange      EXHF   =         0.00000000
  -V(xc)+E(xc)   XCENC  =      2188.88061166
  PAW double counting   =     27678.37482361   -27093.89052547
  entropy T*S    EENTRO =        -0.84401018
  eigenvalues    EBANDS =     -3763.27163100
  atomic energy  EATOM  =     48780.58959162
  Solvation  Ediel_sol  =         0.00000000
  ---------------------------------------------------
  free energy    TOTEN  =      4254.95732727 eV

  energy without entropy =     4255.80133745  energy(sigma->0) =     4255.37933236


--------------------------------------------------------------------------------------------------------




--------------------------------------- Iteration      1(   3)  ---------------------------------------


    EDDIAG:  cpu time    2.7516: real time    2.7525
  RMM-DIIS:  cpu time    5.1722: real time    5.1732
    ORTHCH:  cpu time    0.6309: real time    0.6306
       DOS:  cpu time    0.0020: real time    0.0020
    --------------------------------------------
      LOOP:  cpu time    8.5567: real time    8.5583

 eigenvalue-minimisations  :   468
 total energy-change (2. order) :-0.2949494E+04  (-0.3526943E+04)
 number of electron     781.0000000 magnetization 
 augmentation part      781.0000000 magnetization 

 Free energy of the ion-electron system (eV)
  ---------------------------------------------------
  alpha Z        PSCENC =       736.72272012
  Ewald energy   TEWEN  =    -12723.00681630
  -Hartree energ DENC   =    -31548.59743679
  -exchange      EXHF   =         0.00000000
  -V(xc)+E(xc)   XCENC  =      2188.88061166
  PAW double counting   =     27678.37482361   -27093.89052547
  entropy T*S    EENTRO =        -0.31464430
  eigenvalues    EBANDS =     -6713.29479858
  atomic energy  EATOM  =     48780.58959162
  Solvation  Ediel_sol  =         0.00000000
  ---------------------------------------------------
  free energy    TOTEN  =      1305.46352557 eV

  energy without entropy =     1305.77816987  energy(sigma->0) =     1305.62084772


--------------------------------------------------------------------------------------------------------




--------------------------------------- Iteration      1(   4)  ---------------------------------------


    EDDIAG:  cpu time    3.7614: real time    4.0882
  RMM-DIIS:  cpu time    5.4962: real time    5.4971
    ORTHCH:  cpu time    0.6259: real time    0.6252
       DOS:  cpu time    0.0010: real time    0.0019
    --------------------------------------------
      LOOP:  cpu time    9.8845: real time   10.2123

 eigenvalue-minimisations  :   468
 total energy-change (2. order) :-0.1402186E+04  (-0.1266083E+04)
 number of electron     781.0000000 magnetization 
 augmentation part      781.0000000 magnetization 

 Free energy of the ion-electron system (eV)
  ---------------------------------------------------
  alpha Z        PSCENC =       736.72272012
  Ewald energy   TEWEN  =    -12723.00681630
  -Hartree energ DENC   =    -31548.59743679
  -exchange      EXHF   =         0.00000000
  -V(xc)+E(xc)   XCENC  =      2188.88061166
  PAW double counting   =     27678.37482361   -27093.89052547
  entropy T*S    EENTRO =        -0.17968371
  eigenvalues    EBANDS =     -8115.61610179
  atomic energy  EATOM  =     48780.58959162
  Solvation  Ediel_sol  =         0.00000000
  ---------------------------------------------------
  free energy    TOTEN  =       -96.72281705 eV

  energy without entropy =      -96.54313334  energy(sigma->0) =      -96.63297520


--------------------------------------------------------------------------------------------------------




--------------------------------------- Iteration      1(   5)  ---------------------------------------


    EDDIAG:  cpu time    2.7566: real time    2.7565
  RMM-DIIS:  cpu time    5.4962: real time    5.4973
    ORTHCH:  cpu time    0.6249: real time    0.6251
       DOS:  cpu time    0.0030: real time    0.0021
    --------------------------------------------
      LOOP:  cpu time    8.8807: real time    8.8811

 eigenvalue-minimisations  :   468
 total energy-change (2. order) :-0.5757013E+03  (-0.4336723E+03)
 number of electron     781.0000000 magnetization 
 augmentation part      781.0000000 magnetization 

 Free energy of the ion-electron system (eV)
  ---------------------------------------------------
  alpha Z        PSCENC =       736.72272012
  Ewald energy   TEWEN  =    -12723.00681630
  -Hartree energ DENC   =    -31548.59743679
  -exchange      EXHF   =         0.00000000
  -V(xc)+E(xc)   XCENC  =      2188.88061166
  PAW double counting   =     27678.37482361   -27093.89052547
  entropy T*S    EENTRO =        -0.33123427
  eigenvalues    EBANDS =     -8691.16586782
  atomic energy  EATOM  =     48780.58959162
  Solvation  Ediel_sol  =         0.00000000
  ---------------------------------------------------
  free energy    TOTEN  =      -672.42413365 eV

  energy without entropy =     -672.09289937  energy(sigma->0) =     -672.25851651


--------------------------------------------------------------------------------------------------------




--------------------------------------- Iteration      1(   6)  ---------------------------------------


    EDDIAG:  cpu time    2.7576: real time    2.7586
  RMM-DIIS:  cpu time    5.4912: real time    5.4917
    ORTHCH:  cpu time    0.6249: real time    0.6247
       DOS:  cpu time    0.0020: real time    0.0020
    --------------------------------------------
      LOOP:  cpu time    8.8757: real time    8.8771

 eigenvalue-minimisations  :   468
 total energy-change (2. order) :-0.2759201E+03  (-0.1902542E+03)
 number of electron     781.0000000 magnetization 
 augmentation part      781.0000000 magnetization 

 Free energy of the ion-electron system (eV)
  ---------------------------------------------------
  alpha Z        PSCENC =       736.72272012
  Ewald energy   TEWEN  =    -12723.00681630
  -Hartree energ DENC   =    -31548.59743679
  -exchange      EXHF   =         0.00000000
  -V(xc)+E(xc)   XCENC  =      2188.88061166
  PAW double counting   =     27678.37482361   -27093.89052547
  entropy T*S    EENTRO =        -0.69998825
  eigenvalues    EBANDS =     -8966.71721994
  atomic energy  EATOM  =     48780.58959162
  Solvation  Ediel_sol  =         0.00000000
  ---------------------------------------------------
  free energy    TOTEN  =      -948.34423974 eV

  energy without entropy =     -947.64425149  energy(sigma->0) =     -947.99424561


--------------------------------------------------------------------------------------------------------




--------------------------------------- Iteration      1(   7)  ---------------------------------------


    EDDIAG:  cpu time    2.7686: real time    2.7699
  RMM-DIIS:  cpu time    5.4912: real time    5.4921
    ORTHCH:  cpu time    0.6239: real time    0.6248
       DOS:  cpu time    0.0020: real time    0.0020
    --------------------------------------------
      LOOP:  cpu time    8.8856: real time    8.8888

 eigenvalue-minimisations  :   468
 total energy-change (2. order) :-0.1595130E+03  (-0.1126568E+03)
 number of electron     781.0000000 magnetization 
 augmentation part      781.0000000 magnetization 

 Free energy of the ion-electron system (eV)
  ---------------------------------------------------
  alpha Z        PSCENC =       736.72272012
  Ewald energy   TEWEN  =    -12723.00681630
  -Hartree energ DENC   =    -31548.59743679
  -exchange      EXHF   =         0.00000000
  -V(xc)+E(xc)   XCENC  =      2188.88061166
  PAW double counting   =     27678.37482361   -27093.89052547
  entropy T*S    EENTRO =        -0.85084909
  eigenvalues    EBANDS =     -9126.07940313
  atomic energy  EATOM  =     48780.58959162
  Solvation  Ediel_sol  =         0.00000000
  ---------------------------------------------------
  free energy    TOTEN  =     -1107.85728377 eV

  energy without entropy =    -1107.00643468  energy(sigma->0) =    -1107.43185922


--------------------------------------------------------------------------------------------------------




--------------------------------------- Iteration      1(   8)  ---------------------------------------


    EDDIAG:  cpu time    2.7526: real time    2.7522
  RMM-DIIS:  cpu time    5.5052: real time    5.5062
    ORTHCH:  cpu time    0.6239: real time    0.6246
       DOS:  cpu time    0.0020: real time    0.0021
    --------------------------------------------
      LOOP:  cpu time    8.8836: real time    8.8851

 eigenvalue-minimisations  :   468
 total energy-change (2. order) :-0.9117036E+02  (-0.6632961E+02)
 number of electron     781.0000000 magnetization 
 augmentation part      781.0000000 magnetization 

 Free energy of the ion-electron system (eV)
  ---------------------------------------------------
  alpha Z        PSCENC =       736.72272012
  Ewald energy   TEWEN  =    -12723.00681630
  -Hartree energ DENC   =    -31548.59743679
  -exchange      EXHF   =         0.00000000
  -V(xc)+E(xc)   XCENC  =      2188.88061166
  PAW double counting   =     27678.37482361   -27093.89052547
  entropy T*S    EENTRO =        -0.83376646
  eigenvalues    EBANDS =     -9217.26684822
  atomic energy  EATOM  =     48780.58959162
  Solvation  Ediel_sol  =         0.00000000
  ---------------------------------------------------
  free energy    TOTEN  =     -1199.02764624 eV

  energy without entropy =    -1198.19387978  energy(sigma->0) =    -1198.61076301


--------------------------------------------------------------------------------------------------------




--------------------------------------- Iteration      1(   9)  ---------------------------------------


    EDDIAG:  cpu time    2.7676: real time    2.7677
  RMM-DIIS:  cpu time   15.4537: real time   15.7052
    ORTHCH:  cpu time    0.6259: real time    0.6253
       DOS:  cpu time    0.0020: real time    0.0020
    --------------------------------------------
      LOOP:  cpu time   18.8491: real time   19.1002

 eigenvalue-minimisations  :  1435
 total energy-change (2. order) :-0.1132402E+03  (-0.9901123E+02)
 number of electron     781.0000000 magnetization 
 augmentation part      781.0000000 magnetization 

 Free energy of the ion-electron system (eV)
  ---------------------------------------------------
  alpha Z        PSCENC =       736.72272012
  Ewald energy   TEWEN  =    -12723.00681630
  -Hartree energ DENC   =    -31548.59743679
  -exchange      EXHF   =         0.00000000
  -V(xc)+E(xc)   XCENC  =      2188.88061166
  PAW double counting   =     27678.37482361   -27093.89052547
  entropy T*S    EENTRO =        -0.82683169
  eigenvalues    EBANDS =     -9330.51399293
  atomic energy  EATOM  =     48780.58959162
  Solvation  Ediel_sol  =         0.00000000
  ---------------------------------------------------
  free energy    TOTEN  =     -1312.26785617 eV

  energy without entropy =    -1311.44102448  energy(sigma->0) =    -1311.85444032


--------------------------------------------------------------------------------------------------------




--------------------------------------- Iteration      1(  10)  ---------------------------------------


    EDDIAG:  cpu time    2.8186: real time    2.8937
  RMM-DIIS:  cpu time   15.4816: real time   15.5224
    ORTHCH:  cpu time    0.6249: real time    0.6258
       DOS:  cpu time    0.0020: real time    0.0021
    --------------------------------------------
      LOOP:  cpu time   18.9271: real time   19.0439

 eigenvalue-minimisations  :  1488
 total energy-change (2. order) :-0.7561299E+01  (-0.8903264E+01)
 number of electron     781.0000000 magnetization 
 augmentation part      781.0000000 magnetization 

 Free energy of the ion-electron system (eV)
  ---------------------------------------------------
  alpha Z        PSCENC =       736.72272012
  Ewald energy   TEWEN  =    -12723.00681630
  -Hartree energ DENC   =    -31548.59743679
  -exchange      EXHF   =         0.00000000
  -V(xc)+E(xc)   XCENC  =      2188.88061166
  PAW double counting   =     27678.37482361   -27093.89052547
  entropy T*S    EENTRO =        -0.83074582
  eigenvalues    EBANDS =     -9338.07137819
  atomic energy  EATOM  =     48780.58959162
  Solvation  Ediel_sol  =         0.00000000
  ---------------------------------------------------
  free energy    TOTEN  =     -1319.82915557 eV

  energy without entropy =    -1318.99840975  energy(sigma->0) =    -1319.41378266


--------------------------------------------------------------------------------------------------------




--------------------------------------- Iteration      1(  11)  ---------------------------------------


    EDDIAG:  cpu time    2.7616: real time    2.7768
  RMM-DIIS:  cpu time   15.4586: real time   15.5103
    ORTHCH:  cpu time    0.6249: real time    0.6252
       DOS:  cpu time    0.0020: real time    0.0021
    --------------------------------------------
      LOOP:  cpu time   18.8471: real time   18.9143

 eigenvalue-minimisations  :  1477
 total energy-change (2. order) :-0.2030899E-01  (-0.1763885E+00)
 number of electron     781.0000000 magnetization 
 augmentation part      781.0000000 magnetization 

 Free energy of the ion-electron system (eV)
  ---------------------------------------------------
  alpha Z        PSCENC =       736.72272012
  Ewald energy   TEWEN  =    -12723.00681630
  -Hartree energ DENC   =    -31548.59743679
  -exchange      EXHF   =         0.00000000
  -V(xc)+E(xc)   XCENC  =      2188.88061166
  PAW double counting   =     27678.37482361   -27093.89052547
  entropy T*S    EENTRO =        -0.83039405
  eigenvalues    EBANDS =     -9338.09203896
  atomic energy  EATOM  =     48780.58959162
  Solvation  Ediel_sol  =         0.00000000
  ---------------------------------------------------
  free energy    TOTEN  =     -1319.84946456 eV

  energy without entropy =    -1319.01907051  energy(sigma->0) =    -1319.43426754


--------------------------------------------------------------------------------------------------------




--------------------------------------- Iteration      1(  12)  ---------------------------------------


    EDDIAG:  cpu time    2.9625: real time    2.9639
  RMM-DIIS:  cpu time   15.3167: real time   15.3218
    ORTHCH:  cpu time    0.6249: real time    0.6267
       DOS:  cpu time    0.0020: real time    0.0021
    CHARGE:  cpu time    0.7539: real time    0.7536
    MIXING:  cpu time    0.0180: real time    0.0178
    --------------------------------------------
      LOOP:  cpu time   19.6780: real time   19.6860

 eigenvalue-minimisations  :  1463
 total energy-change (2. order) :-0.1870631E-01  (-0.1805950E-01)
 number of electron     780.9999727 magnetization 
 augmentation part       81.9254666 magnetization 

 Broyden mixing:
  rms(total) = 0.91953E+01    rms(broyden)= 0.91896E+01
  rms(prec ) = 0.10219E+02
  weight for this iteration     100.00

 Free energy of the ion-electron system (eV)
  ---------------------------------------------------
  alpha Z        PSCENC =       736.72272012
  Ewald energy   TEWEN  =    -12723.00681630
  -Hartree energ DENC   =    -31548.59743679
  -exchange      EXHF   =         0.00000000
  -V(xc)+E(xc)   XCENC  =      2188.88061166
  PAW double counting   =     27678.37482361   -27093.89052547
  entropy T*S    EENTRO =        -0.83053766
  eigenvalues    EBANDS =     -9338.11060166
  atomic energy  EATOM  =     48780.58959162
  Solvation  Ediel_sol  =         0.00000000
  ---------------------------------------------------
  free energy    TOTEN  =     -1319.86817087 eV

  energy without entropy =    -1319.03763321  energy(sigma->0) =    -1319.45290204


--------------------------------------------------------------------------------------------------------




--------------------------------------- Iteration      1(  13)  ---------------------------------------


    POTLOK:  cpu time    0.7279: real time    0.7279
    SETDIJ:  cpu time    0.0320: real time    0.0322
    EDDIAG:  cpu time    2.7636: real time    2.7641
  RMM-DIIS:  cpu time   13.7999: real time   13.8051
    ORTHCH:  cpu time    0.6269: real time    0.6269
       DOS:  cpu time    0.0020: real time    0.0019
    CHARGE:  cpu time    0.7689: real time    0.7687
    MIXING:  cpu time    0.0180: real time    0.0202
    --------------------------------------------
      LOOP:  cpu time   18.7392: real time   18.7470

 eigenvalue-minimisations  :  1319
 total energy-change (2. order) : 0.9225520E+02  (-0.1636070E+03)
 number of electron     780.9999779 magnetization 
 augmentation part       76.1546924 magnetization 

 Broyden mixing:
  rms(total) = 0.49701E+01    rms(broyden)= 0.49656E+01
  rms(prec ) = 0.55937E+01
  weight for this iteration     100.00

 eigenvalues of (default mixing * dielectric matrix)
  average eigenvalue GAMMA=   0.7001
  0.7001

 Free energy of the ion-electron system (eV)
  ---------------------------------------------------
  alpha Z        PSCENC =       736.72272012
  Ewald energy   TEWEN  =    -12723.00681630
  -Hartree energ DENC   =    -33222.09312637
  -exchange      EXHF   =         0.00000000
  -V(xc)+E(xc)   XCENC  =      2301.26860002
  PAW double counting   =     32254.47076841   -31640.63031454
  entropy T*S    EENTRO =        -0.43473535
  eigenvalues    EBANDS =     -7714.49965962
  atomic energy  EATOM  =     48780.58959162
  Solvation  Ediel_sol  =         0.00000000
  ---------------------------------------------------
  free energy    TOTEN  =     -1227.61297203 eV

  energy without entropy =    -1227.17823668  energy(sigma->0) =    -1227.39560435


--------------------------------------------------------------------------------------------------------




--------------------------------------- Iteration      1(  14)  ---------------------------------------


    POTLOK:  cpu time    0.7249: real time    0.7266
    SETDIJ:  cpu time    0.0320: real time    0.0314
    EDDIAG:  cpu time    2.7606: real time    2.7617
  RMM-DIIS:  cpu time   12.4591: real time   12.4615
    ORTHCH:  cpu time    0.6269: real time    0.6270
       DOS:  cpu time    0.0020: real time    0.0021
    CHARGE:  cpu time    0.7559: real time    0.7562
    MIXING:  cpu time    0.0200: real time    0.0224
    --------------------------------------------
      LOOP:  cpu time   17.3814: real time   17.3888

 eigenvalue-minimisations  :  1179
 total energy-change (2. order) : 0.1094356E+03  (-0.2492698E+02)
 number of electron     780.9999777 magnetization 
 augmentation part       74.5589236 magnetization 

 Broyden mixing:
  rms(total) = 0.31195E+01    rms(broyden)= 0.31158E+01
  rms(prec ) = 0.35043E+01
  weight for this iteration     100.00

 eigenvalues of (default mixing * dielectric matrix)
  average eigenvalue GAMMA=   0.7201
  0.7201  0.7201

 Free energy of the ion-electron system (eV)
  ---------------------------------------------------
  alpha Z        PSCENC =       736.72272012
  Ewald energy   TEWEN  =    -12723.00681630
  -Hartree energ DENC   =    -33546.74636286
  -exchange      EXHF   =         0.00000000
  -V(xc)+E(xc)   XCENC  =      2316.07539275
  PAW double counting   =     33406.00435343   -32862.51101776
  entropy T*S    EENTRO =        -0.50330409
  eigenvalues    EBANDS =     -7224.80192629
  atomic energy  EATOM  =     48780.58959162
  Solvation  Ediel_sol  =         0.00000000
  ---------------------------------------------------
  free energy    TOTEN  =     -1118.17736939 eV

  energy without entropy =    -1117.67406530  energy(sigma->0) =    -1117.92571735


--------------------------------------------------------------------------------------------------------




--------------------------------------- Iteration      1(  15)  ---------------------------------------


    POTLOK:  cpu time    0.7229: real time    0.7237
    SETDIJ:  cpu time    0.0320: real time    0.0322
    EDDIAG:  cpu time    2.7866: real time    2.7863
  RMM-DIIS:  cpu time   13.8689: real time   13.8709
    ORTHCH:  cpu time    0.6259: real time    0.6266
       DOS:  cpu time    0.0020: real time    0.0021
    CHARGE:  cpu time    0.7459: real time    0.7456
    MIXING:  cpu time    0.0190: real time    0.0213
    --------------------------------------------
      LOOP:  cpu time   18.8031: real time   18.8086

 eigenvalue-minimisations  :  1319
 total energy-change (2. order) : 0.1193768E+02  (-0.6525633E+01)
 number of electron     780.9999780 magnetization 
 augmentation part       73.5063020 magnetization 

 Broyden mixing:
  rms(total) = 0.21181E+01    rms(broyden)= 0.21144E+01
  rms(prec ) = 0.24244E+01
  weight for this iteration     100.00

 eigenvalues of (default mixing * dielectric matrix)
  average eigenvalue GAMMA=   0.7366
  0.8878  0.8878  0.4340

 Free energy of the ion-electron system (eV)
  ---------------------------------------------------
  alpha Z        PSCENC =       736.72272012
  Ewald energy   TEWEN  =    -12723.00681630
  -Hartree energ DENC   =    -33671.38091140
  -exchange      EXHF   =         0.00000000
  -V(xc)+E(xc)   XCENC  =      2322.01603184
  PAW double counting   =     33923.70458299   -33395.87168470
  entropy T*S    EENTRO =        -0.47503164
  eigenvalues    EBANDS =     -7078.53817512
  atomic energy  EATOM  =     48780.58959162
  Solvation  Ediel_sol  =         0.00000000
  ---------------------------------------------------
  free energy    TOTEN  =     -1106.23969261 eV

  energy without entropy =    -1105.76466096  energy(sigma->0) =    -1106.00217678


--------------------------------------------------------------------------------------------------------




--------------------------------------- Iteration      1(  16)  ---------------------------------------


    POTLOK:  cpu time    0.7909: real time    0.7904
    SETDIJ:  cpu time    0.0310: real time    0.0318
    EDDIAG:  cpu time    2.7396: real time    2.7397
  RMM-DIIS:  cpu time   14.4858: real time   14.4883
    ORTHCH:  cpu time    0.6259: real time    0.6255
       DOS:  cpu time    0.0020: real time    0.0020
    CHARGE:  cpu time    0.7529: real time    0.7533
    MIXING:  cpu time    0.0190: real time    0.0191
    --------------------------------------------
      LOOP:  cpu time   19.4470: real time   19.4501

 eigenvalue-minimisations  :  1382
 total energy-change (2. order) :-0.6507601E+00  (-0.2581246E+01)
 number of electron     780.9999778 magnetization 
 augmentation part       72.7259862 magnetization 

 Broyden mixing:
  rms(total) = 0.19679E+01    rms(broyden)= 0.19631E+01
  rms(prec ) = 0.23514E+01
  weight for this iteration     100.00

 eigenvalues of (default mixing * dielectric matrix)
  average eigenvalue GAMMA=   0.7120
  1.0330  1.0330  0.3910  0.3910

 Free energy of the ion-electron system (eV)
  ---------------------------------------------------
  alpha Z        PSCENC =       736.72272012
  Ewald energy   TEWEN  =    -12723.00681630
  -Hartree energ DENC   =    -33785.55928035
  -exchange      EXHF   =         0.00000000
  -V(xc)+E(xc)   XCENC  =      2327.15137068
  PAW double counting   =     34388.61090313   -33861.23666621
  entropy T*S    EENTRO =        -0.36934350
  eigenvalues    EBANDS =     -6969.79293190
  atomic energy  EATOM  =     48780.58959162
  Solvation  Ediel_sol  =         0.00000000
  ---------------------------------------------------
  free energy    TOTEN  =     -1106.89045271 eV

  energy without entropy =    -1106.52110921  energy(sigma->0) =    -1106.70578096


--------------------------------------------------------------------------------------------------------




--------------------------------------- Iteration      1(  17)  ---------------------------------------


    POTLOK:  cpu time    0.7239: real time    0.7248
    SETDIJ:  cpu time    0.0320: real time    0.0320
    EDDIAG:  cpu time    2.7536: real time    2.7538
  RMM-DIIS:  cpu time   14.7778: real time   14.7810
    ORTHCH:  cpu time    0.6249: real time    0.6254
       DOS:  cpu time    0.0020: real time    0.0020
    CHARGE:  cpu time    0.7579: real time    0.7580
    MIXING:  cpu time    0.0210: real time    0.0209
    --------------------------------------------
      LOOP:  cpu time   19.6930: real time   19.6979

 eigenvalue-minimisations  :  1411
 total energy-change (2. order) : 0.8799086E+00  (-0.1023329E+01)
 number of electron     780.9999772 magnetization 
 augmentation part       69.0104707 magnetization 

 Broyden mixing:
  rms(total) = 0.49831E+01    rms(broyden)= 0.49819E+01
  rms(prec ) = 0.57152E+01
  weight for this iteration     100.00

 eigenvalues of (default mixing * dielectric matrix)
  average eigenvalue GAMMA=   0.5674
  0.9907  0.9907  0.3966  0.3966  0.0622

 Free energy of the ion-electron system (eV)
  ---------------------------------------------------
  alpha Z        PSCENC =       736.72272012
  Ewald energy   TEWEN  =    -12723.00681630
  -Hartree energ DENC   =    -33884.52110573
  -exchange      EXHF   =         0.00000000
  -V(xc)+E(xc)   XCENC  =      2331.44079830
  PAW double counting   =     34796.73835829   -34267.50464833
  entropy T*S    EENTRO =        -0.61256625
  eigenvalues    EBANDS =     -6875.85687579
  atomic energy  EATOM  =     48780.58959162
  Solvation  Ediel_sol  =         0.00000000
  ---------------------------------------------------
  free energy    TOTEN  =     -1106.01054408 eV

  energy without entropy =    -1105.39797783  energy(sigma->0) =    -1105.70426095


--------------------------------------------------------------------------------------------------------




--------------------------------------- Iteration      1(  18)  ---------------------------------------


    POTLOK:  cpu time    1.0238: real time    1.3523
    SETDIJ:  cpu time    0.0330: real time    0.0328
    EDDIAG:  cpu time    2.7586: real time    2.7604
  RMM-DIIS:  cpu time   13.7339: real time   13.7378
    ORTHCH:  cpu time    0.6269: real time    0.6264
       DOS:  cpu time    0.0020: real time    0.0022
    CHARGE:  cpu time    0.7479: real time    0.7480
    MIXING:  cpu time    0.0230: real time    0.0225
    --------------------------------------------
      LOOP:  cpu time   18.9491: real time   19.2825

 eigenvalue-minimisations  :  1290
 total energy-change (2. order) : 0.3033361E+01  (-0.2793641E+00)
 number of electron     780.9999776 magnetization 
 augmentation part       72.1197171 magnetization 

 Broyden mixing:
  rms(total) = 0.14826E+01    rms(broyden)= 0.14803E+01
  rms(prec ) = 0.17084E+01
  weight for this iteration     100.00

 eigenvalues of (default mixing * dielectric matrix)
  average eigenvalue GAMMA=   0.5332
  0.9894  0.9894  0.4263  0.4263  0.2911  0.0767

 Free energy of the ion-electron system (eV)
  ---------------------------------------------------
  alpha Z        PSCENC =       736.72272012
  Ewald energy   TEWEN  =    -12723.00681630
  -Hartree energ DENC   =    -33875.12546668
  -exchange      EXHF   =         0.00000000
  -V(xc)+E(xc)   XCENC  =      2331.21637888
  PAW double counting   =     34773.07148128   -34241.64456814
  entropy T*S    EENTRO =        -0.71164890
  eigenvalues    EBANDS =     -6884.08885447
  atomic energy  EATOM  =     48780.58959162
[...]
   0.173E+02 -.236E+02 -.139E+03   -.261E+02 0.259E+02 0.152E+03   0.104E+02 -.609E+01 -.124E+02   -.162E-02 0.221E-03 0.304E-02
   -.248E+02 -.288E+02 -.154E+03   0.325E+02 0.261E+02 0.171E+03   -.815E+01 0.191E+01 -.168E+02   0.258E-02 0.143E-02 0.294E-02
   0.561E+02 0.436E+02 0.423E+02   -.589E+02 -.427E+02 -.430E+02   0.133E+01 -.118E+01 0.132E+00   -.626E-05 0.261E-04 -.200E-02
   -.740E+02 0.220E+02 0.367E+02   0.725E+02 -.218E+02 -.369E+02   0.198E+01 -.221E+00 -.984E-01   -.846E-04 0.258E-03 -.166E-02
   0.173E+02 -.616E+02 0.378E+02   -.164E+02 0.582E+02 -.354E+02   -.899E+00 0.305E+01 -.194E+01   0.109E-03 -.267E-03 -.208E-02
   -.253E+02 0.791E+02 -.203E+02   0.244E+02 -.780E+02 0.211E+02   0.102E+01 -.170E+01 -.459E+00   0.393E-03 -.442E-03 0.220E-02
   0.645E+02 0.260E+02 0.450E+02   -.630E+02 -.271E+02 -.462E+02   -.192E+01 0.446E+00 0.343E+00   0.179E-03 0.186E-03 -.171E-02
   -.179E+02 -.736E+02 0.357E+02   0.172E+02 0.716E+02 -.355E+02   0.948E+00 0.207E+01 -.316E+00   0.681E-05 0.583E-04 -.149E-02
   0.500E+02 -.567E+02 -.315E+02   -.528E+02 0.558E+02 0.328E+02   0.141E+01 0.131E+01 -.538E+00   0.425E-03 -.674E-04 0.356E-02
   -.673E+02 -.997E+01 -.874E+01   0.640E+02 0.946E+01 0.663E+01   0.313E+01 0.454E+00 0.154E+01   -.630E-03 -.613E-03 0.137E-02
   0.241E+02 0.714E+02 -.108E+02   -.238E+02 -.710E+02 0.107E+02   -.510E+00 -.102E+01 -.437E-01   -.470E-03 -.112E-03 0.279E-02
   0.726E+02 -.222E+02 -.129E+02   -.711E+02 0.222E+02 0.126E+02   -.189E+01 0.157E+00 0.277E+00   -.971E-05 0.318E-03 -.453E-03
   -.181E+02 0.728E+02 -.142E+02   0.173E+02 -.710E+02 0.137E+02   0.930E+00 -.201E+01 0.389E+00   0.592E-04 0.241E-03 -.162E-03
   0.288E+02 -.345E+02 0.778E+01   -.293E+02 0.372E+02 -.902E+01   0.497E+00 -.138E+01 0.355E+00   0.345E-02 0.529E-02 -.240E-02
   -.765E+02 0.265E+02 -.176E+02   0.764E+02 -.240E+02 0.210E+02   0.117E+01 -.173E+01 -.202E+01   -.167E-03 0.942E-04 0.348E-03
   0.166E+02 -.408E+02 -.182E+02   -.182E+02 0.354E+02 0.182E+02   0.810E+00 0.368E+01 0.120E+00   -.504E-03 0.372E-03 0.346E-03
   0.567E+02 -.518E+02 -.146E+02   -.588E+02 0.512E+02 0.145E+02   0.110E+01 0.116E+01 0.215E+00   -.813E-03 -.915E-04 -.576E-04
   -.716E+02 -.194E+02 -.139E+02   0.698E+02 0.193E+02 0.138E+02   0.208E+01 0.136E+00 0.214E+00   -.114E-03 -.198E-03 -.241E-03
   0.185E+02 0.674E+02 -.118E+02   -.173E+02 -.645E+02 0.943E+01   -.109E+01 -.283E+01 0.189E+01   -.389E-04 0.140E-02 -.850E-03
   -.119E+02 0.706E+02 -.324E+02   0.151E+02 -.736E+02 0.350E+02   -.162E+01 0.697E+00 -.657E+00   0.498E-03 -.461E-05 0.699E-04
   -.200E+02 -.797E+02 -.161E+02   0.203E+02 0.788E+02 0.162E+02   0.426E+00 0.158E+01 0.166E+00   0.568E-03 0.617E-03 0.100E-03
   -.877E+02 -.624E+01 0.200E+02   0.879E+02 0.601E+01 -.200E+02   0.113E+01 0.383E+00 -.571E-01   -.408E-03 -.125E-03 -.132E-02
   0.217E+02 0.408E+02 0.430E+02   -.213E+02 -.369E+02 -.446E+02   -.553E+00 -.283E+01 0.586E+00   0.114E-02 0.331E-03 -.210E-02
   0.818E+02 0.252E+01 -.907E+01   -.811E+02 -.531E+00 0.669E+01   -.138E+01 -.161E+01 0.175E+01   0.392E-03 0.295E-03 0.203E-03
   -.503E+02 0.698E+02 -.127E+02   0.523E+02 -.693E+02 0.128E+02   -.901E+00 -.102E+01 -.196E-01   0.109E-02 0.228E-03 0.981E-03
   -.371E+02 -.689E+02 -.117E+02   0.377E+02 0.659E+02 0.116E+02   -.342E+00 0.303E+01 -.101E-02   -.427E-03 -.120E-02 0.140E-02
   0.310E+02 -.121E+02 0.579E+02   -.276E+02 0.131E+02 -.615E+02   -.240E+01 0.424E-01 0.116E+01   0.490E-03 -.461E-04 -.137E-02
   -.488E+02 -.717E+02 0.179E+02   0.515E+02 0.719E+02 -.181E+02   -.121E+01 0.602E+00 0.653E-01   0.858E-04 0.547E-05 -.105E-02
   -.268E+02 0.635E+02 0.239E+02   0.274E+02 -.601E+02 -.239E+02   -.325E+00 -.315E+01 0.114E+00   -.103E-02 -.449E-04 -.203E-02
   -.830E+02 0.644E+01 -.894E+01   0.816E+02 -.618E+01 0.883E+01   0.180E+01 -.326E+00 0.653E-01   -.222E-03 -.595E-03 0.643E-03
   0.366E+02 -.764E+02 -.138E+02   -.360E+02 0.748E+02 0.140E+02   -.692E+00 0.192E+01 -.966E-01   0.503E-03 -.947E-04 0.108E-02
   -.233E+02 0.338E+02 0.146E+02   0.233E+02 -.332E+02 -.149E+02   0.320E+00 -.809E+00 0.157E+00   0.487E-03 0.864E-03 -.150E-02
   -.222E+02 -.329E+02 0.110E+02   0.222E+02 0.323E+02 -.110E+02   0.235E+00 0.799E+00 -.116E-01   0.424E-03 -.988E-03 -.126E-02
   0.413E+02 -.171E+01 0.146E+02   -.411E+02 0.183E+01 -.148E+02   -.674E+00 -.862E-01 0.742E-01   0.187E-03 -.213E-03 -.116E-02
   0.134E+02 -.397E+02 -.222E+02   -.105E+02 0.413E+02 0.237E+02   -.218E+01 -.664E+00 -.109E+01   0.930E-03 0.368E-03 0.164E-02
   -.177E+02 0.365E+02 -.468E+02   0.222E+02 -.351E+02 0.500E+02   -.279E+01 -.118E+01 -.137E+01   0.159E-02 -.242E-03 0.169E-02
   -.120E+02 -.109E+02 -.283E+02   0.114E+02 0.109E+02 0.287E+02   0.559E+00 0.167E+00 -.195E+00   -.286E-02 0.534E-03 0.279E-02
   0.178E+02 0.354E+02 0.157E+02   -.176E+02 -.348E+02 -.161E+02   -.371E+00 -.842E+00 0.105E+00   0.330E-03 0.221E-03 -.112E-02
   0.201E+02 -.356E+02 0.123E+02   -.198E+02 0.352E+02 -.124E+02   -.504E+00 0.684E+00 0.361E-01   0.256E-03 -.258E-03 -.115E-02
   -.413E+02 -.493E+00 0.130E+02   0.444E+02 0.532E+00 -.129E+02   -.184E+01 0.300E-01 -.319E-01   0.129E-02 -.240E-03 -.141E-02
   0.156E+01 -.341E+02 -.478E+02   0.577E+00 0.345E+02 0.502E+02   -.128E+01 -.111E+00 -.845E+00   0.368E-02 0.139E-02 0.302E-02
 -----------------------------------------------------------------------------------------------
   0.371E+02 0.253E+02 -.910E+01   -.626E-12 -.924E-13 0.171E-12   -.371E+02 -.254E+02 0.910E+01   0.180E-01 0.371E-01 -.395E-02
 
 
 POSITION                                       TOTAL-FORCE (eV/Angst)
 -----------------------------------------------------------------------------------
      4.69107     -0.96607     13.00144         0.633444      0.525483      0.116455
      4.76510     -6.32127     13.00144        -0.494464     -0.055800      0.053838
      4.69107      0.96607      2.60694         0.606651     -0.403068     -0.181422
      4.69107     -0.96607     18.18206         0.677881      0.384993      0.156943
      4.69107      0.96607      7.78756        -1.429241      0.340423     -0.271297
      1.59109      2.67977      5.19725        -0.615779      0.289043     -0.025055
      1.59109     -2.67977     15.59175        -0.675143     -0.440564      0.136456
      1.55470      2.69281     10.39450         0.022428      0.275078      0.038875
      1.55470     -2.69281     10.39450        -0.167516     -0.424351     -0.183087
      6.62126     -1.27376      8.81891        -0.197100      0.931712     -0.139580
      8.89456     -3.25454      7.23038        -0.479598      0.358010      0.136984
      8.50817      0.37491      1.25981         0.212729     -0.255886     -0.161021
      7.96923      7.18084      1.25981         0.177083     -0.029531      0.043497
      2.34459      3.31114      1.25981        -0.303369      0.235223     -0.419473
      4.03983     -0.37491     11.65431        -1.582403      1.461518     -3.604685
      4.57877     -7.18084     11.65431        -0.572496     -2.468077     -3.842656
     10.20341     -3.31114     11.65431        -0.092432     -0.157686     -0.508611
      4.03983      0.37491      1.25981        -1.987962     -1.682673     -3.673883
      4.57877      7.18084      1.25981        -0.207367      0.033427      0.151849
     10.20341      3.31114      1.25981         0.136345      0.193835     -0.078278
      8.50817     -0.37491     11.65431         0.163731      0.266341     -1.058901
      7.96923     -7.18084     11.65431         0.425123      2.667574      3.391400
      2.34459     -3.31114     11.65431         2.081040     -1.583778      3.252707
      4.03983     -0.37491     19.52919        -1.971787      1.658654      3.643545
      4.57877     -7.18084     19.52919        -0.209056     -0.092620      0.182403
     10.20341     -3.31114     19.52919         0.210800     -0.160981      0.242781
      8.50817      0.37491      9.13469        -0.678469     -0.906555     -0.062629
      7.96923      7.18084      9.13469         0.361392     -2.844074     -3.807432
      2.34459      3.31114      9.13469         2.175214      1.943929     -3.463246
      8.50817     -0.37491     19.52919         0.217195      0.243397      0.340206
      7.96923     -7.18084     19.52919         0.202733     -0.045459      0.115051
      2.34459     -3.31114     19.52919        -0.348745     -0.184393      0.488148
      4.03983      0.37491      9.13469        -1.027105     -1.918843      3.322992
      4.57877      7.18084      9.13469        -0.936381     -0.115753     -0.972016
     10.20341      3.31114      9.13469        -0.320854      0.156614     -0.392396
      8.52762      0.25211      3.88339         0.355550     -0.661233      0.731908
      8.06585      7.25908      3.88339         0.186098      0.072703      0.121078
      2.22852      3.35569      3.88339         1.786202      1.908638     -3.586443
      4.02038     -0.25211     14.27789        -1.839256      1.923589      3.404619
      4.48215     -7.25908     14.27789        -0.708582     -2.586445      3.582223
     10.31948     -3.35569     14.27789        -0.071413     -0.277343     -0.255232
      4.02038      0.25211      3.88339        -1.811522     -1.972574      3.372127
      4.48215      7.25908      3.88339        -0.481872      0.423092      0.954646
     10.31948      3.35569      3.88339        -0.048432      0.261705     -0.068795
      8.52762     -0.25211     14.27789         0.072879      0.285312     -0.053746
      8.06585     -7.25908     14.27789         0.396166     -0.136719      0.317183
      2.22852     -3.35569     14.27789         1.694766     -1.731304     -3.416790
      4.02038     -0.25211     16.90561        -1.837411      1.925855     -3.370031
      4.48215     -7.25908     16.90561        -0.289074     -0.015100      0.254439
     10.31948     -3.35569     16.90561        -0.018935     -0.295183      0.156499
      8.52762      0.25211      6.51111        -0.173399     -0.810870      0.360781
      8.06585      7.25908      6.51111         0.126391      0.019942     -0.345761
      2.22852      3.35569      6.51111         1.885237      2.208676      3.630915
      8.52762     -0.25211     16.90561         0.082232      0.316178     -0.155243
      8.06585     -7.25908     16.90561         0.314979     -0.017775      0.022937
      2.22852     -3.35569     16.90561         1.730517     -1.789585      3.535189
      4.02038      0.25211      6.51111        -1.473701     -2.101469     -3.218181
      4.48215      7.25908      6.51111        -1.422811      0.370355      0.169530
     10.31948      3.35569      6.51111        -0.204613      0.256120      0.248467
      8.12797      2.55263      2.67762        -0.305045      0.418742      0.158625
      6.27337      5.76271      2.67762        -0.063553     -0.486742      0.215940
      4.42066      2.55155      2.67762        -0.831150      4.454025      0.286830
      4.42003     -2.55263     13.07212        -0.686316     -4.061019      0.120650
      6.27463     -5.76271     13.07212         4.071296      1.499713      0.106286
      8.12734     -2.55155     13.07212        -0.299860     -0.395343     -0.127636
      4.42003     -2.55263     18.11138        -0.811302     -4.286248     -0.283008
      6.27463     -5.76271     18.11138         0.003359      0.565636     -0.053431
      8.12734     -2.55155     18.11138        -0.271146     -0.520903     -0.072162
      8.12797      2.55263      7.71688        -0.792972     -0.340086     -0.018642
      6.27337      5.76271      7.71688        -0.996275     -0.465588     -0.477057
      4.42066      2.55155      7.71688        -0.378654      4.456878     -0.180194
      6.27337      0.68353      2.60486         4.731814     -0.703156      0.113329
      8.81936      5.09114      2.60486         0.019691      0.205225      0.052837
      3.72927      5.09222      2.60486         0.088830      0.793264      0.015011
      6.27463     -0.68353     12.99936         4.657665      0.607099     -0.216821
      3.72864     -5.09114     12.99936        -2.764177      3.219023     -0.009977
      8.81873     -5.09222     12.99936         0.513446      0.384751      0.045504
      6.27463     -0.68353     18.18414         4.484975      0.673411     -0.020522
      3.72864     -5.09114     18.18414         0.014087     -0.535801      0.124699
      8.81873     -5.09222     18.18414         0.122746     -0.045674      0.014577
      6.27337      0.68353      7.78964         5.224624     -2.309573      0.681903
      8.81936      5.09114      7.78964         0.071694     -0.226494     -0.218905
      3.72927      5.09222      7.78964         0.188325      1.923987     -0.253507
      6.27400      8.66526      5.19725        -0.936426      0.359832      0.291141
      1.90667      1.10082      5.19725         0.824288     -4.327222     -0.111085
     10.64133      1.10082      5.19725         0.010557     -1.005930      0.136676
      6.27400     -8.66526     15.59175         0.158143     -0.604154      0.063443
     10.64133     -1.10082     15.59175         0.299915      0.402975     -0.006300
      1.90667     -1.10082     15.59175         0.867621      4.199880     -0.007128
      2.52591     -1.45834      5.19725        -0.371500     -0.886656      0.015815
      6.27400     -7.95021      5.19725        -4.717802      0.530685      0.032035
     10.02209     -1.45834      5.19725        -0.197877     -0.826616      0.559410
     10.02209      1.45834     15.59175        -0.118114     -0.183931      0.102565
      6.27400      7.95021     15.59175        -4.503837     -0.516207     -0.006411
      2.52591      1.45834     15.59175        -0.156469      0.567604      0.010211
      6.27463      8.34903     20.41272        -0.086180      0.145103     -0.272481
      2.18021      1.25947     20.41272        -0.415374      0.130520     -0.320314
     10.36716      1.25839     20.41272         0.203875     -0.036598     -0.308869
      6.27337     -8.34903     10.01822        -4.245093     -0.458057     -0.947497
     10.36778     -1.25947     10.01822        -0.515102      0.252094     -0.900111
      2.18084     -1.25839     10.01822         1.752149      3.748470     -0.955643
      6.27337     -8.34903      0.37628         0.001126     -0.167126      0.345039
     10.36778     -1.25947      0.37628         0.193151      0.034777      0.409516
      2.18084     -1.25839      0.37628        -0.469457     -0.239770      0.349370
      6.27463      8.34903     10.77078        -4.914344      0.446236      0.745475
      2.18021      1.25947     10.77078         1.648790     -3.821950      0.976903
     10.36716      1.25839     10.77078        -0.466635     -0.800456      0.058226
      7.85693      0.96607      2.60694        -1.390505     -0.324747     -0.514510
      7.78290      6.32127      2.60694         0.436867     -0.045399     -0.300638
      3.18217      3.57955      2.60694         0.043409     -0.375067      0.429799
      9.36583     -3.57955     13.00144         0.119615     -0.543452      0.331152
      4.76510      6.32127      2.60694        -0.334231     -0.619169     -0.816853
      9.36583      3.57955      2.60694         0.194299      0.108322     -0.133265
      7.85693     -0.96607     13.00144        -1.340150      0.465746      0.751658
      7.78290     -6.32127     13.00144        -0.187108     -0.054243     -0.543241
      3.18217     -3.57955     13.00144        -0.179770     -0.642980     -0.085365
      4.76510     -6.32127     18.18206        -0.392845      0.106423     -0.047092
      9.36583     -3.57955     18.18206         0.081854     -0.217690     -0.038924
      7.85693      0.96607      7.78756         0.009723      1.396548     -0.909448
      7.78290      6.32127      7.78756         1.060877      0.799140      1.331365
      3.18217      3.57955      7.78756        -0.805777     -1.664710      0.089870
      7.85693     -0.96607     18.18206        -1.024423      0.525749      0.048979
      7.78290     -6.32127     18.18206         0.293012     -0.012755      0.041646
      3.18217     -3.57955     18.18206         0.132210      0.048313     -0.449922
      4.76510      6.32127      7.78756         1.613120     -2.290552      1.900477
      9.36583      3.57955      7.78756         0.680644      0.571018      0.168091
      7.79921      8.14908      5.19725         1.233620      0.148369     -0.045671
      9.43170      0.03803      5.19725        -0.066699      1.019905     -0.928212
      4.74879     -8.14908     15.59175        -0.642457      0.380399     -0.616393
     10.95691     -2.67977     15.59175         1.019860     -0.467986      0.032794
      3.11630     -0.03803     15.59175         0.252211      0.067128     -0.082134
      4.74879      8.14908      5.19725         1.118990      0.984844     -2.531798
     10.95691      2.67977      5.19725         1.438981      0.811190     -0.157771
      3.11630      0.03803      5.19725         0.217736      0.287143      0.128670
      7.79921     -8.14908     15.59175         0.362435     -0.060920     -0.050058
      9.43170     -0.03803     15.59175        -0.122490      0.366691      0.055891
      1.55470     -2.69281      0.00000         0.301263     -0.174833     -0.160333
      1.55470      2.69281      0.00000         0.233101      0.264181      0.010656
      9.43861      0.00000      0.00000        -0.511263      0.027006     -0.116412
      4.71930     -8.17407     10.39450         0.657931      0.876218      0.376556
      4.71930      8.17407     10.39450         1.690844      0.190314      1.792165
      3.10939      0.00000     10.39450        -0.074670      0.123486      0.185166
      4.71930      8.17407      0.00000        -0.157449     -0.217577     -0.252667
      4.71930     -8.17407      0.00000        -0.178072      0.279296     -0.068398
      3.10939      0.00000      0.00000         1.250588      0.068647      0.002450
      9.43861      0.00000     10.39450         0.870705      0.255648      1.546624
 -----------------------------------------------------------------------------------
    total drift:                               -0.001946     -0.005146      0.001019


--------------------------------------------------------------------------------------------------------



  FREE ENERGIE OF THE ION-ELECTRON SYSTEM (eV)
  ---------------------------------------------------
  free  energy   TOTEN  =     -1110.67214610 eV

  energy  without entropy=    -1109.63339537  energy(sigma->0) =    -1110.15277073
 


--------------------------------------------------------------------------------------------------------


    POTLOK:  cpu time    0.9639: real time    0.9646


--------------------------------------------------------------------------------------------------------


     LOOP+:  cpu time  876.2948: real time  877.8210
    4ORBIT:  cpu time    0.0000: real time    0.0000

 total amount of memory used by VASP MPI-rank0   156709. kBytes
=======================================================================

   base      :      30000. kBytes
   nonlr-proj:      17909. kBytes
   fftplans  :      24655. kBytes
   grid      :      50981. kBytes
   one-center:        202. kBytes
   wavefun   :      32962. kBytes
 
  
  
 General timing and accounting informations for this job:
 ========================================================
  
                  Total CPU time used (sec):      883.154
                            User time (sec):      881.040
                          System time (sec):        2.114
                         Elapsed time (sec):      884.983
  
                   Maximum memory used (kb):      268984.
                   Average memory used (kb):           0.
  
                          Minor page faults:       158151
                          Major page faults:          169
                 Voluntary context switches:          898
