 vasp.5.4.4.18Apr17-6-g9f103f2a35 (build Dec 21 2018 14:18:36) complex          
  
 executed on             LinuxIFC date 2022.03.30  23:43:01
 running on   12 total cores
 distrk:  each k-point on   12 cores,    1 groups
 distr:  one band on NCORES_PER_BAND=  12 cores,    1 groups


--------------------------------------------------------------------------------------------------------


 INCAR:
 POTCAR:  PAW_PBE Al 04Jan2001                    
 POTCAR:   PAW_PBE Cu 22Jun2005                   
 POTCAR:   PAW_PBE O 08Apr2002                    
 POTCAR:   PAW_PBE Si 05Jan2001                   

 ----------------------------------------------------------------------------- 
|                                                                             |
|           W    W    AA    RRRRR   N    N  II  N    N   GGGG   !!!           |
|           W    W   A  A   R    R  NN   N  II  NN   N  G    G  !!!           |
|           W    W  A    A  R    R  N N  N  II  N N  N  G       !!!           |
|           W WW W  AAAAAA  RRRRR   N  N N  II  N  N N  G  GGG   !            |
|           WW  WW  A    A  R   R   N   NN  II  N   NN  G    G                |
|           W    W  A    A  R    R  N    N  II  N    N   GGGG   !!!           |
|                                                                             |
|      For optimal performance we recommend to set                            |
|        NCORE= 4 - approx SQRT( number of cores)                             |
|      NCORE specifies how many cores store one orbital (NPAR=cpu/NCORE).     |
|      This setting can  greatly improve the performance of VASP for DFT.     |
|      The default,   NCORE=1            might be grossly inefficient         |
|      on modern multi-core architectures or massively parallel machines.     |
|      Do your own testing !!!!                                               |
|      Unfortunately you need to use the default for GW and RPA calculations. |
|      (for HF NCORE is supported but not extensively tested yet)             |
|                                                                             |
 ----------------------------------------------------------------------------- 

 POTCAR:  PAW_PBE Al 04Jan2001                    
   VRHFIN =Al: s2p1                                                             
   LEXCH  = PE                                                                  
   EATOM  =    53.5387 eV,    3.9350 Ry                                         
                                                                                
   TITEL  = PAW_PBE Al 04Jan2001                                                
   LULTRA =        F    use ultrasoft PP ?                                      
   IUNSCR =        1    unscreen: 0-lin 1-nonlin 2-no                           
   RPACOR =    1.500    partial core radius                                     
   POMASS =   26.982; ZVAL   =    3.000    mass and valenz                      
   RCORE  =    1.900    outmost cutoff radius                                   
   RWIGS  =    2.650; RWIGS  =    1.402    wigner-seitz radius (au A)           
   ENMAX  =  240.300; ENMIN  =  180.225 eV                                      
   ICORE  =        2    local potential                                         
   LCOR   =        T    correct aug charges                                     
   LPAW   =        T    paw PP                                                  
   EAUG   =  291.052                                                            
   DEXC   =    -.041                                                            
   RMAX   =    2.974    core radius for proj-oper                               
   RAUG   =    1.300    factor for augmentation sphere                          
   RDEP   =    1.966    radius for radial grids                                 
   QCUT   =   -4.203; QGAM   =    8.405    optimization parameters              
                                                                                
   Description                                                                  
     l     E      TYP  RCUT    TYP  RCUT                                        
     0   .000     23  1.900                                                     
     0   .000     23  1.900                                                     
     1   .000     23  1.900                                                     
     1  1.000     23  1.900                                                     
     2   .000      7  1.900                                                     
  local pseudopotential read in
  partial core-charges read in
  atomic valenz-charges read in
  non local Contribution for L=           0  read in
    real space projection operators read in
  non local Contribution for L=           0  read in
    real space projection operators read in
  non local Contribution for L=           1  read in
    real space projection operators read in
  non local Contribution for L=           1  read in
    real space projection operators read in
    PAW grid and wavefunctions read in
 
   number of l-projection  operators is LMAX  =           4
   number of lm-projection operators is LMMAX =           8
 
 POTCAR:   PAW_PBE Cu 22Jun2005                   
   VRHFIN =Cu: d10 p1                                                           
   LEXCH  = PE                                                                  
   EATOM  =  1390.9808 eV,  102.2342 Ry                                         
                                                                                
   TITEL  = PAW_PBE Cu 22Jun2005                                                
   LULTRA =        F    use ultrasoft PP ?                                      
   IUNSCR =        1    unscreen: 0-lin 1-nonlin 2-no                           
   RPACOR =    2.000    partial core radius                                     
   POMASS =   63.546; ZVAL   =   11.000    mass and valenz                      
   RCORE  =    2.300    outmost cutoff radius                                   
   RWIGS  =    2.200; RWIGS  =    1.164    wigner-seitz radius (au A)           
   ENMAX  =  295.446; ENMIN  =  221.585 eV                                      
   ICORE  =        3    local potential                                         
   LCOR   =        T    correct aug charges                                     
   LPAW   =        T    paw PP                                                  
   EAUG   =  586.980                                                            
   DEXC   =    0.000                                                            
   RMAX   =    2.344    core radius for proj-oper                               
   RAUG   =    1.300    factor for augmentation sphere                          
   RDEP   =    2.302    radius for radial grids                                 
   RDEPT  =    1.771    core radius for aug-charge                              
                                                                                
   Atomic configuration                                                         
    9 entries                                                                   
     n  l   j            E        occ.                                          
     1  0  0.50     -8850.2468   2.0000                                         
     2  0  0.50     -1062.3498   2.0000                                         
     2  1  1.50      -916.8226   6.0000                                         
     3  0  0.50      -114.6929   2.0000                                         
     3  1  1.50       -72.1325   6.0000                                         
     3  2  2.50        -5.0394  10.0000                                         
     4  0  0.50        -4.6097   1.0000                                         
     4  1  0.50        -4.0817   0.0000                                         
     4  3  2.50        -1.3606   0.0000                                         
   Description                                                                  
     l       E           TYP  RCUT    TYP  RCUT                                 
     2     -5.0393973     23  2.200                                             
     2     10.8846608     23  2.200                                             
     0     -4.6097109     23  2.200                                             
     0      8.2520465     23  2.200                                             
     1     -2.7211652     23  2.200                                             
     1     21.7055443     23  2.200                                             
     3      2.7211652     23  2.300                                             
  local pseudopotential read in
  partial core-charges read in
  partial kinetic energy density read in
  atomic valenz-charges read in
  non local Contribution for L=           2  read in
    real space projection operators read in
  non local Contribution for L=           2  read in
    real space projection operators read in
  non local Contribution for L=           0  read in
    real space projection operators read in
  non local Contribution for L=           0  read in
    real space projection operators read in
  non local Contribution for L=           1  read in
    real space projection operators read in
  non local Contribution for L=           1  read in
    real space projection operators read in
    PAW grid and wavefunctions read in
 
   number of l-projection  operators is LMAX  =           6
   number of lm-projection operators is LMMAX =          18
 
 POTCAR:   PAW_PBE O 08Apr2002                    
   VRHFIN =O: s2p4                                                              
   LEXCH  = PE                                                                  
   EATOM  =   432.3788 eV,   31.7789 Ry                                         
                                                                                
   TITEL  = PAW_PBE O 08Apr2002                                                 
   LULTRA =        F    use ultrasoft PP ?                                      
   IUNSCR =        0    unscreen: 0-lin 1-nonlin 2-no                           
   RPACOR =     .000    partial core radius                                     
   POMASS =   16.000; ZVAL   =    6.000    mass and valenz                      
   RCORE  =    1.520    outmost cutoff radius                                   
   RWIGS  =    1.550; RWIGS  =     .820    wigner-seitz radius (au A)           
   ENMAX  =  400.000; ENMIN  =  300.000 eV                                      
   ICORE  =        2    local potential                                         
   LCOR   =        T    correct aug charges                                     
   LPAW   =        T    paw PP                                                  
   EAUG   =  605.392                                                            
   DEXC   =     .000                                                            
   RMAX   =    2.264    core radius for proj-oper                               
   RAUG   =    1.300    factor for augmentation sphere                          
   RDEP   =    1.550    radius for radial grids                                 
   QCUT   =   -5.520; QGAM   =   11.041    optimization parameters              
                                                                                
   Description                                                                  
     l     E      TYP  RCUT    TYP  RCUT                                        
     0   .000     23  1.200                                                     
     0  -.700     23  1.200                                                     
     1   .000     23  1.520                                                     
     1   .600     23  1.520                                                     
     2   .000      7  1.500                                                     
  local pseudopotential read in
  atomic valenz-charges read in
  non local Contribution for L=           0  read in
    real space projection operators read in
  non local Contribution for L=           0  read in
    real space projection operators read in
  non local Contribution for L=           1  read in
    real space projection operators read in
  non local Contribution for L=           1  read in
    real space projection operators read in
    PAW grid and wavefunctions read in
 
   number of l-projection  operators is LMAX  =           4
   number of lm-projection operators is LMMAX =           8
 
 POTCAR:   PAW_PBE Si 05Jan2001                   
   VRHFIN =Si: s2p2                                                             
   LEXCH  = PE                                                                  
   EATOM  =   103.0669 eV,    7.5752 Ry                                         
                                                                                
   TITEL  = PAW_PBE Si 05Jan2001                                                
   LULTRA =        F    use ultrasoft PP ?                                      
   IUNSCR =        1    unscreen: 0-lin 1-nonlin 2-no                           
   RPACOR =    1.500    partial core radius                                     
   POMASS =   28.085; ZVAL   =    4.000    mass and valenz                      
   RCORE  =    1.900    outmost cutoff radius                                   
   RWIGS  =    2.480; RWIGS  =    1.312    wigner-seitz radius (au A)           
   ENMAX  =  245.345; ENMIN  =  184.009 eV                                      
   ICORE  =        2    local potential                                         
   LCOR   =        T    correct aug charges                                     
   LPAW   =        T    paw PP                                                  
   EAUG   =  322.069                                                            
   DEXC   =    -.007                                                            
   RMAX   =    2.944    core radius for proj-oper                               
   RAUG   =    1.300    factor for augmentation sphere                          
   RDEP   =    1.993    radius for radial grids                                 
   QCUT   =   -4.246; QGAM   =    8.493    optimization parameters              
                                                                                
   Description                                                                  
     l     E      TYP  RCUT    TYP  RCUT                                        
     0   .000     23  1.900                                                     
     0   .000     23  1.900                                                     
     1   .000     23  1.900                                                     
     1   .000     23  1.900                                                     
     2   .000      7  1.900                                                     
  local pseudopotential read in
  partial core-charges read in
  atomic valenz-charges read in
  non local Contribution for L=           0  read in
    real space projection operators read in
  non local Contribution for L=           0  read in
    real space projection operators read in
  non local Contribution for L=           1  read in
    real space projection operators read in
  non local Contribution for L=           1  read in
    real space projection operators read in
    PAW grid and wavefunctions read in
 
   number of l-projection  operators is LMAX  =           4
   number of lm-projection operators is LMMAX =           8
 
 Optimization of the real space projectors (new method)

 maximal supplied QI-value         = 19.84
 optimisation between [QCUT,QGAM] = [ 10.12, 20.44] = [ 28.68,116.96] Ry 
 Optimized for a Real-space Cutoff    1.26 Angstroem

   l    n(q)    QCUT    max X(q) W(low)/X(q) W(high)/X(q)  e(spline) 
   0      8    10.119    13.410    0.28E-04    0.17E-04    0.51E-08
   0      8    10.119   140.052    0.10E-03    0.16E-03    0.42E-07
   1      7    10.119     9.624    0.38E-04    0.42E-05    0.15E-07
   1      7    10.119    53.353    0.23E-03    0.17E-03    0.13E-06
 Optimization of the real space projectors (new method)

 maximal supplied QI-value         = 16.25
 optimisation between [QCUT,QGAM] = [ 10.24, 20.48] = [ 29.35,117.42] Ry 
 Optimized for a Real-space Cutoff    1.55 Angstroem

   l    n(q)    QCUT    max X(q) W(low)/X(q) W(high)/X(q)  e(spline) 
   2      9    10.239     4.610    0.85E-04    0.29E-03    0.14E-06
   2      9    10.239     8.522    0.15E-03    0.50E-03    0.27E-06
   0     10    10.239    51.609    0.45E-04    0.99E-04    0.10E-06
   0     10    10.239    27.747    0.40E-04    0.93E-04    0.97E-07
   1      9    10.239    20.408    0.15E-03    0.78E-05    0.15E-06
   1      9    10.239    13.425    0.13E-03    0.71E-05    0.14E-06
 Optimization of the real space projectors (new method)

 maximal supplied QI-value         = 24.76
 optimisation between [QCUT,QGAM] = [ 10.15, 20.30] = [ 28.85,115.39] Ry 
 Optimized for a Real-space Cutoff    1.51 Angstroem

   l    n(q)    QCUT    max X(q) W(low)/X(q) W(high)/X(q)  e(spline) 
   0      9    10.150     4.192    0.32E-04    0.13E-04    0.13E-06
   0      9    10.150     8.473    0.18E-03    0.20E-03    0.43E-06
   1      9    10.150     2.474    0.32E-04    0.33E-04    0.64E-07
   1      9    10.150     3.912    0.13E-03    0.16E-03    0.33E-06
 Optimization of the real space projectors (new method)

 maximal supplied QI-value         = 19.84
 optimisation between [QCUT,QGAM] = [ 10.12, 20.44] = [ 28.68,116.96] Ry 
 Optimized for a Real-space Cutoff    1.38 Angstroem

   l    n(q)    QCUT    max X(q) W(low)/X(q) W(high)/X(q)  e(spline) 
   0      8    10.119     8.708    0.16E-04    0.67E-05    0.60E-08
   0      8    10.119   106.241    0.56E-04    0.11E-03    0.54E-07
   1      8    10.119     5.901    0.16E-04    0.16E-05    0.22E-07
   1      8    10.119    73.241    0.22E-03    0.17E-03    0.18E-06
PAW_PBE Al 04Jan2001                    :
 energy of atom  1       EATOM=  -53.5387
 kinetic energy error for atom=    0.0005 (will be added to EATOM!!)
 PAW_PBE Cu 22Jun2005                   :
 energy of atom  2       EATOM=-1390.9808
 kinetic energy error for atom=    0.0232 (will be added to EATOM!!)
 PAW_PBE O 08Apr2002                    :
 energy of atom  3       EATOM= -432.3788
 kinetic energy error for atom=    0.1156 (will be added to EATOM!!)
 PAW_PBE Si 05Jan2001                   :
 energy of atom  4       EATOM= -103.0669
 kinetic energy error for atom=    0.0012 (will be added to EATOM!!)
 
 
 POSCAR: Al Cu O Si                              
  positions in direct lattice
  velocities in cartesian coordinates
  No initial velocities read in
 exchange correlation table for  LEXCH =        8
   RHO(1)=    0.500       N(1)  =     2000
   RHO(2)=  100.500       N(2)  =     4000
 


--------------------------------------------------------------------------------------------------------


 ion  position               nearest neighbor table
   1  0.150  0.076  0.834-  10 1.61  21 1.61  29 1.61  14 1.61  60 3.08  58 3.09  62 3.11  71 3.12

   2  0.076  0.150  0.334-  11 1.61  23 1.61  31 1.61  12 1.61  61 3.08  56 3.09  64 3.11  73 3.12

   3  0.658  0.116  0.439-  47 1.61  35 1.61  41 1.61  22 1.61   6 2.79  64 3.09  70 3.10  61 3.11
                            73 3.12
   4  0.322  0.131  0.052-  32 1.61  53 1.61  24 1.61  48 1.61   7 2.73  71 3.09  62 3.10  56 3.12
                            65 3.12
   5  0.131  0.322  0.552-  34 1.61  55 1.61  26 1.61  50 1.61  73 3.09  64 3.10  58 3.12  67 3.12

   6  0.476  0.040  0.329-  47 2.13   7 2.69  73 2.72   3 2.79
   7  0.441  0.068  0.185-  48 2.29  24 2.30   6 2.69   4 2.73
   8  0.000  0.000  0.161-  56 1.61  57 1.61
   9  0.000  0.000  0.661-  58 1.61  59 1.61
  10  0.000  0.000  0.839-   1 1.61  60 1.61
  11  0.000  0.000  0.339-   2 1.61  61 1.61
  12  0.101  0.189  0.250-   2 1.61  56 1.61
  13  0.811  0.899  0.250-  57 1.61  61 1.61
  14  0.189  0.101  0.750-   1 1.61  58 1.61
  15  0.899  0.811  0.750-  59 1.61  60 1.61
  16  0.974  0.277  0.129-  56 1.61  66 1.61
  17  0.723  0.026  0.129-  57 1.61  65 1.61
  18  0.277  0.974  0.629-  58 1.61  68 1.61
  19  0.026  0.723  0.629-  59 1.61  67 1.61
  20  0.026  0.723  0.871-  60 1.61  63 1.61
  21  0.277  0.974  0.871-   1 1.61  62 1.61
  22  0.723  0.026  0.371-  61 1.61   3 1.61
  23  0.974  0.277  0.371-   2 1.61  64 1.61
  24  0.229  0.132  0.125-  56 1.61   4 1.61   7 2.30
  25  0.868  0.771  0.125-  57 1.61  69 1.61
  26  0.132  0.229  0.625-  58 1.61   5 1.61
  27  0.771  0.868  0.625-  59 1.61  70 1.61
  28  0.771  0.868  0.875-  60 1.61  72 1.61
  29  0.132  0.229  0.875-   1 1.61  71 1.61
  30  0.868  0.771  0.375-  61 1.61  74 1.61
  31  0.229  0.132  0.375-   2 1.61  73 1.61
  32  0.314  0.979  0.012-   4 1.61  62 1.61
  33  0.021  0.686  0.012-  69 1.61  63 1.61
  34  0.979  0.314  0.512-   5 1.61  64 1.61
  35  0.686  0.021  0.512-  70 1.61   3 1.61
  36  0.686  0.021  0.988-  72 1.61  65 1.61
  37  0.979  0.314  0.988-  71 1.61  66 1.61
  38  0.021  0.686  0.488-  74 1.61  67 1.61
  39  0.314  0.979  0.488-  73 1.61  68 1.61
  40  0.264  0.736  0.947-  62 1.61  63 1.61
  41  0.736  0.264  0.447-   3 1.61  64 1.61
  42  0.736  0.264  0.053-  65 1.61  66 1.61
  43  0.264  0.736  0.553-  67 1.61  68 1.61
  44  0.512  0.847  0.928-  62 1.61  72 1.61
  45  0.153  0.488  0.928-  63 1.61  71 1.61
  46  0.847  0.512  0.428-  64 1.61  74 1.61
  47  0.488  0.153  0.428-   3 1.61  73 1.61   6 2.13
  48  0.488  0.153  0.072-  65 1.61   4 1.61   7 2.29
  49  0.847  0.512  0.072-  66 1.61  69 1.61
  50  0.153  0.488  0.572-  67 1.61   5 1.61
  51  0.512  0.847  0.572-  68 1.61  70 1.61
  52  0.740  0.740  0.000-  69 1.61  72 1.61
  53  0.260  0.260  0.000-   4 1.61  71 1.61
  54  0.740  0.740  0.500-  70 1.61  74 1.61
  55  0.260  0.260  0.500-   5 1.61  73 1.61
  56  0.076  0.150  0.166-   8 1.61  16 1.61  24 1.61  12 1.61  57 3.08   2 3.09  66 3.11   4 3.12

  57  0.850  0.924  0.166-  17 1.61  25 1.61  13 1.61   8 1.61  56 3.08  61 3.09  65 3.11  69 3.12

  58  0.150  0.076  0.666-   9 1.61  18 1.61  26 1.61  14 1.61  59 3.08   1 3.09  68 3.11   5 3.12

  59  0.924  0.850  0.666-  19 1.61  27 1.61  15 1.61   9 1.61  58 3.08  60 3.09  67 3.11  70 3.12

  60  0.924  0.850  0.834-  20 1.61  28 1.61  15 1.61  10 1.61   1 3.08  59 3.09  63 3.11  72 3.12

  61  0.850  0.924  0.334-  22 1.61  30 1.61  13 1.61  11 1.61   2 3.08  57 3.09   3 3.11  74 3.12

  62  0.342  0.884  0.939-  44 1.61  32 1.61  40 1.61  21 1.61  63 3.09   4 3.10   1 3.11  72 3.12

  63  0.116  0.658  0.939-  45 1.61  33 1.61  40 1.61  20 1.61  62 3.09  69 3.10  60 3.11  71 3.12

  64  0.884  0.342  0.439-  46 1.61  34 1.61  41 1.61  23 1.61   3 3.09   5 3.10   2 3.11  74 3.12

  65  0.658  0.116  0.061-  48 1.61  36 1.61  42 1.61  17 1.61  66 3.09  72 3.10  57 3.11   4 3.12

  66  0.884  0.342  0.061-  49 1.61  37 1.61  42 1.61  16 1.61  65 3.09  71 3.10  56 3.11  69 3.12

  67  0.116  0.658  0.561-  50 1.61  38 1.61  43 1.61  19 1.61  68 3.09  74 3.10  59 3.11   5 3.12

  68  0.342  0.884  0.561-  51 1.61  39 1.61  43 1.61  18 1.61  67 3.09  73 3.10  58 3.11  70 3.12

  69  0.869  0.678  0.052-  33 1.61  52 1.61  25 1.61  49 1.61  72 3.09  63 3.10  57 3.12  66 3.12

  70  0.678  0.869  0.552-  35 1.61  54 1.61  27 1.61  51 1.61  74 3.09   3 3.10  59 3.12  68 3.12

  71  0.131  0.322  0.948-  37 1.61  53 1.61  29 1.61  45 1.61   4 3.09  66 3.10   1 3.12  63 3.12

  72  0.678  0.869  0.948-  36 1.61  52 1.61  28 1.61  44 1.61  69 3.09  65 3.10  60 3.12  62 3.12

  73  0.322  0.131  0.448-  39 1.61  55 1.61  31 1.61  47 1.61   6 2.72   5 3.09  68 3.10   2 3.12
                             3 3.12
  74  0.869  0.678  0.448-  38 1.61  54 1.61  30 1.61  46 1.61  70 3.09  67 3.10  61 3.12  64 3.12

 

IMPORTANT INFORMATION: All symmetrisations will be switched off!
NOSYMM: (Re-)initialisation of all symmetry stuff for point group C_1.

 
 
 KPOINTS: Automatic                               

Automatic generation of k-mesh.
Space group operators:
 irot       det(A)        alpha          n_x          n_y          n_z        tau_x        tau_y        tau_z
    1     1.000000     0.000000     1.000000     0.000000     0.000000     0.000000     0.000000     0.000000
 
 Subroutine IBZKPT returns following result:
 ===========================================
 
 Found      1 irreducible k-points:
 
 Following reciprocal coordinates:
            Coordinates               Weight
  0.000000  0.000000  0.000000      1.000000
 
 Following cartesian coordinates:
            Coordinates               Weight
  0.000000  0.000000  0.000000      1.000000
 


--------------------------------------------------------------------------------------------------------




 Dimension of arrays:
   k-points           NKPTS =      1   k-points in BZ     NKDIM =      1   number of bands    NBANDS=    240
   number of dos      NEDOS =    301   number of ions     NIONS =     74
   non local maximal  LDIM  =      6   non local SUM 2l+1 LMDIM =     18
   total plane-waves  NPLWV = 516096
   max r-space proj   IRMAX =   5135   max aug-charges    IRDMAX=  12794
   dimension x,y,z NGX =    64 NGY =   64 NGZ =  126
   dimension x,y,z NGXF=   128 NGYF=  128 NGZF=  252
   support grid    NGXF=   128 NGYF=  128 NGZF=  252
   ions per type =               5   2  48  19
   NGX,Y,Z   is equivalent  to a cutoff of  11.44, 11.44, 11.32 a.u.
   NGXF,Y,Z  is equivalent  to a cutoff of  22.88, 22.88, 22.65 a.u.

 SYSTEM =  ZEOLITE_aei_energy_so                   
 POSCAR =  Al Cu O Si                              

 Startparameter for this run:
   NWRITE =      2    write-flag & timer
   PREC   = accura    normal or accurate (medium, high low for compatibility)
   ISTART =      0    job   : 0-new  1-cont  2-samecut
   ICHARG =      2    charge: 1-file 2-atom 10-const
   ISPIN  =      1    spin polarized calculation?
   LNONCOLLINEAR =      F non collinear calculations
   LSORBIT =      F    spin-orbit coupling
   INIWAV =      1    electr: 0-lowe 1-rand  2-diag
   LASPH  =      F    aspherical Exc in radial PAW
   METAGGA=      F    non-selfconsistent MetaGGA calc.

 Electronic Relaxation 1
   ENCUT  =  400.0 eV  29.40 Ry    5.42 a.u.  15.17 15.17 30.16*2*pi/ulx,y,z
   ENINI  =  400.0     initial cutoff
   ENAUG  =  605.4 eV  augmentation charge cutoff
   NELM   =    100;   NELMIN=  5; NELMDL=-12     # of ELM steps 
   EDIFF  = 0.1E-05   stopping-criterion for ELM
   LREAL  =      T    real-space projection
   NLSPLINE    = F    spline interpolate recip. space projectors
   LCOMPAT=      F    compatible to vasp.4.4
   GGA_COMPAT  = T    GGA compatible to vasp.4.4-vasp.4.6
   LMAXPAW     = -100 max onsite density
   LMAXMIX     =    2 max onsite mixed and CHGCAR
   VOSKOWN=      0    Vosko Wilk Nusair interpolation
   ROPT   =   -0.00025  -0.00025  -0.00025  -0.00025
 Ionic relaxation
   EDIFFG = -.5E-02   stopping-criterion for IOM
   NSW    =      0    number of steps for IOM
   NBLOCK =      1;   KBLOCK =      1    inner block; outer block 
   IBRION =     -1    ionic relax: 0-MD 1-quasi-New 2-CG
   NFREE  =      2    steps in history (QN), initial steepest desc. (CG)
   ISIF   =      2    stress and relaxation
   IWAVPR =     10    prediction:  0-non 1-charg 2-wave 3-comb
   ISYM   =      0    0-nonsym 1-usesym 2-fastsym
   LCORR  =      T    Harris-Foulkes like correction to forces

   POTIM  = 0.0150    time-step for ionic-motion
   TEIN   =    0.0    initial temperature
   TEBEG  =    0.0;   TEEND  =   0.0 temperature during run
   SMASS  =  -3.00    Nose mass-parameter (am)
   estimated Nose-frequenzy (Omega)   =  0.10E-29 period in steps =****** mass=  -0.198E-26a.u.
   SCALEE = 1.0000    scale energy and forces
   NPACO  =    256;   APACO  = 16.0  distance and # of slots for P.C.
   PSTRESS=    0.0 pullay stress

  Mass of Ions in am
   POMASS =  26.98 63.55 16.00 28.09
  Ionic Valenz
   ZVAL   =   3.00 11.00  6.00  4.00
  Atomic Wigner-Seitz radii
   RWIGS  =  -1.00 -1.00 -1.00 -1.00
  virtual crystal weights 
   VCA    =   1.00  1.00  1.00  1.00
   NELECT =     401.0000    total number of electrons
   NUPDOWN=      -1.0000    fix difference up-down

 DOS related values:
   EMIN   =  10.00;   EMAX   =-10.00  energy-range for DOS
   EFERMI =   0.00
   ISMEAR =     0;   SIGMA  =   0.20  broadening in eV -4-tet -1-fermi 0-gaus

 Electronic relaxation 2 (details)
   IALGO  =     48    algorithm
   LDIAG  =      T    sub-space diagonalisation (order eigenvalues)
   LSUBROT=      F    optimize rotation matrix (better conditioning)
   TURBO    =      0    0=normal 1=particle mesh
   IRESTART =      0    0=no restart 2=restart with 2 vectors
   NREBOOT  =      0    no. of reboots
   NMIN     =      0    reboot dimension
   EREF     =   0.00    reference energy to select bands
   IMIX   =      4    mixing-type and parameters
     AMIX     =   0.40;   BMIX     =  1.00
     AMIX_MAG =   1.60;   BMIX_MAG =  1.00
     AMIN     =   0.10
     WC   =   100.;   INIMIX=   1;  MIXPRE=   1;  MAXMIX= -45

 Intra band minimization:
   WEIMIN = 0.0000     energy-eigenvalue tresh-hold
   EBREAK =  0.10E-08  absolut break condition
   DEPER  =   0.30     relativ break condition  

   TIME   =   0.40     timestep for ELM

  volume/ion in A,a.u.               =      21.55       145.42
  Fermi-wavevector in a.u.,A,eV,Ry     =   1.033312  1.952677 14.527411  1.067735
  Thomas-Fermi vector in A             =   2.167553
 
 Write flags
   LWAVE        =      F    write WAVECAR
   LDOWNSAMPLE  =      F    k-point downsampling of WAVECAR
   LCHARG       =      F    write CHGCAR
   LVTOT        =      F    write LOCPOT, total local potential
   LVHAR        =      F    write LOCPOT, Hartree potential only
   LELF         =      F    write electronic localiz. function (ELF)
   LORBIT       =      0    0 simple, 1 ext, 2 COOP (PROOUT), +10 PAW based schemes


 Dipole corrections
   LMONO  =      F    monopole corrections only (constant potential shift)
   LDIPOL =      F    correct potential (dipole corrections)
   IDIPOL =      0    1-x, 2-y, 3-z, 4-all directions 
   EPSILON=  1.0000000 bulk dielectric constant

 Exchange correlation treatment:
   GGA     =    PE    GGA type
   LEXCH   =     8    internal setting for exchange type
   VOSKOWN=      0    Vosko Wilk Nusair interpolation
   LHFCALC =     F    Hartree Fock is set to
   LHFONE  =     F    Hartree Fock one center treatment
   AEXX    =    0.0000 exact exchange contribution

 Linear response parameters
   LEPSILON=     F    determine dielectric tensor
   LRPA    =     F    only Hartree local field effects (RPA)
   LNABLA  =     F    use nabla operator in PAW spheres
   LVEL    =     F    velocity operator in full k-point grid
   LINTERFAST=   F  fast interpolation
   KINTER  =     0    interpolate to denser k-point grid
   CSHIFT  =0.1000    complex shift for real part using Kramers Kronig
   OMEGAMAX=  -1.0    maximum frequency
   DEG_THRESHOLD= 0.2000000E-02 threshold for treating states as degnerate
   RTIME   =   -0.100 relaxation time in fs
  (WPLASMAI=    0.000 imaginary part of plasma frequency in eV, 0.658/RTIME)
   DFIELD  = 0.0000000 0.0000000 0.0000000 field for delta impulse in time
 
 Orbital magnetization related:
   ORBITALMAG=     F  switch on orbital magnetization
   LCHIMAG   =     F  perturbation theory with respect to B field
   DQ        =  0.001000  dq finite difference perturbation B field
   LLRAUG    =     F  two centre corrections for induced B field



--------------------------------------------------------------------------------------------------------


 Static calculation
 charge density and potential will be updated during run
 non-spin polarized calculation
 RMM-DIIS sequential band-by-band
 perform sub-space diagonalisation
    before iterative eigenvector-optimisation
 modified Broyden-mixing scheme, WC =      100.0
 initial mixing is a Kerker type mixing with AMIX =  0.4000 and BMIX =      1.0000
 Hartree-type preconditioning will be used
 using additional bands           39
 real space projection scheme for non local part
 use partial core corrections
 calculate Harris-corrections to forces 
   (improved forces if not selfconsistent)
 use gradient corrections 
 use of overlap-Matrix (Vanderbilt PP)
 Gauss-broadening in eV      SIGMA  =   0.20


--------------------------------------------------------------------------------------------------------


  energy-cutoff  :      400.00
  volume of cell :     1594.68
      direct lattice vectors                 reciprocal lattice vectors
     6.838500000 -6.303500000  0.000000000     0.073115449 -0.079321012  0.000000000
     6.838500000  6.303500000  0.000000000     0.073115449  0.079321012  0.000000000
     0.000000000  0.000000000 18.497000000     0.000000000  0.000000000  0.054062821

  length of vectors
     9.300494315  9.300494315 18.497000000     0.107878134  0.107878134  0.054062821


 
 k-points in units of 2pi/SCALE and weight: Automatic                               
   0.00000000  0.00000000  0.00000000       1.000
 
 k-points in reciprocal lattice and weights: Automatic                               
   0.00000000  0.00000000  0.00000000       1.000
 
 position of ions in fractional coordinates (direct lattice) 
   0.14950000  0.07570000  0.83360000
   0.07570000  0.14950000  0.33360000
   0.65830000  0.11610000  0.43940000
   0.32250000  0.13090000  0.05210000
   0.13090000  0.32250000  0.55210000
   0.47561115  0.03977683  0.32886852
   0.44078044  0.06814123  0.18489062
   0.00000000  0.00040000  0.16140000
   0.00040000  0.00000000  0.66140000
   0.00040000  0.00000000  0.83860000
   0.00000000  0.00040000  0.33860000
   0.10110000  0.18870000  0.25000000
   0.81130000  0.89890000  0.25000000
   0.18870000  0.10110000  0.75000000
   0.89890000  0.81130000  0.75000000
   0.97370000  0.27670000  0.12930000
   0.72330000  0.02630000  0.12930000
   0.27670000  0.97370000  0.62930000
   0.02630000  0.72330000  0.62930000
   0.02630000  0.72330000  0.87070000
   0.27670000  0.97370000  0.87070000
   0.72330000  0.02630000  0.37070000
   0.97370000  0.27670000  0.37070000
   0.22870000  0.13210000  0.12530000
   0.86790000  0.77130000  0.12530000
   0.13210000  0.22870000  0.62530000
   0.77130000  0.86790000  0.62530000
   0.77130000  0.86790000  0.87470000
   0.13210000  0.22870000  0.87470000
   0.86790000  0.77130000  0.37470000
   0.22870000  0.13210000  0.37470000
   0.31430000  0.97870000  0.01160000
   0.02130000  0.68570000  0.01160000
   0.97870000  0.31430000  0.51160000
   0.68570000  0.02130000  0.51160000
   0.68570000  0.02130000  0.98840000
   0.97870000  0.31430000  0.98840000
   0.02130000  0.68570000  0.48840000
   0.31430000  0.97870000  0.48840000
   0.26360000  0.73640000  0.94680000
   0.73640000  0.26360000  0.44680000
   0.73640000  0.26360000  0.05320000
   0.26360000  0.73640000  0.55320000
   0.51220000  0.84660000  0.92810000
   0.15340000  0.48780000  0.92810000
   0.84660000  0.51220000  0.42810000
   0.48780000  0.15340000  0.42810000
   0.48780000  0.15340000  0.07190000
   0.84660000  0.51220000  0.07190000
   0.15340000  0.48780000  0.57190000
   0.51220000  0.84660000  0.57190000
   0.74040000  0.74040000  0.00000000
   0.25960000  0.25960000  0.00000000
   0.74040000  0.74040000  0.50000000
   0.25960000  0.25960000  0.50000000
   0.07570000  0.14950000  0.16640000
   0.85050000  0.92430000  0.16640000
   0.14950000  0.07570000  0.66640000
   0.92430000  0.85050000  0.66640000
   0.92430000  0.85050000  0.83360000
   0.85050000  0.92430000  0.33360000
   0.34170000  0.88390000  0.93940000
   0.11610000  0.65830000  0.93940000
   0.88390000  0.34170000  0.43940000
   0.65830000  0.11610000  0.06060000
   0.88390000  0.34170000  0.06060000
   0.11610000  0.65830000  0.56060000
   0.34170000  0.88390000  0.56060000
   0.86910000  0.67750000  0.05210000
   0.67750000  0.86910000  0.55210000
   0.13090000  0.32250000  0.94790000
   0.67750000  0.86910000  0.94790000
   0.32250000  0.13090000  0.44790000
   0.86910000  0.67750000  0.44790000
 
 position of ions in cartesian coordinates  (Angst):
   1.54003020 -0.46519830 15.41909920
   1.54003020  0.46519830  6.17059920
   5.29573440 -3.41775770  8.12758180
   3.10057590 -1.20775060  0.96369370
   3.10057590  1.20775060 10.21219370
   3.52448069 -2.74728168  6.08308103
   3.48026081 -2.34893127  3.41992188
   0.00273540  0.00252140  2.98541580
   0.00273540 -0.00252140 12.23391580
   0.00273540 -0.00252140 15.51158420
   0.00273540  0.00252140  6.26308420
   1.98179730  0.55218660  4.62425000
  11.69520270  0.55218660  4.62425000
   1.98179730 -0.55218660 13.87275000
  11.69520270 -0.55218660 13.87275000
   8.55086040 -4.39353950  2.39166210
   5.12613960 -4.39353950  2.39166210
   8.55086040  4.39353950 11.64016210
   5.12613960  4.39353950 11.64016210
   5.12613960  4.39353950 16.10533790
   8.55086040  4.39353950 16.10533790
   5.12613960 -4.39353950  6.85683790
   8.55086040 -4.39353950  6.85683790
   2.46733080 -0.60891810  2.31767410
  11.20966920 -0.60891810  2.31767410
   2.46733080  0.60891810 11.56617410
  11.20966920  0.60891810 11.56617410
  11.20966920  0.60891810 16.17932590
   2.46733080  0.60891810 16.17932590
  11.20966920 -0.60891810  6.93082590
   2.46733080 -0.60891810  6.93082590
   8.84218050  4.18804540  0.21456520
   4.83481950  4.18804540  0.21456520
   8.84218050 -4.18804540  9.46306520
   4.83481950 -4.18804540  9.46306520
   4.83481950 -4.18804540 18.28243480
   8.84218050 -4.18804540 18.28243480
   4.83481950  4.18804540  9.03393480
   8.84218050  4.18804540  9.03393480
   6.83850000  2.98029480 17.51295960
   6.83850000 -2.98029480  8.26445960
   6.83850000 -2.98029480  0.98404040
   6.83850000  2.98029480 10.23254040
   9.29215380  2.10789040 17.16706570
   4.38484620  2.10789040 17.16706570
   9.29215380 -2.10789040  7.91856570
   4.38484620 -2.10789040  7.91856570
   4.38484620 -2.10789040  1.32993430
   9.29215380 -2.10789040  1.32993430
   4.38484620  2.10789040 10.57843430
   9.29215380  2.10789040 10.57843430
  10.12645080  0.00000000  0.00000000
   3.55054920  0.00000000  0.00000000
  10.12645080  0.00000000  9.24850000
   3.55054920  0.00000000  9.24850000
   1.54003020  0.46519830  3.07790080
  12.13696980  0.46519830  3.07790080
   1.54003020 -0.46519830 12.32640080
  12.13696980 -0.46519830 12.32640080
  12.13696980 -0.46519830 15.41909920
  12.13696980  0.46519830  6.17059920
   8.38126560  3.41775770 17.37608180
   5.29573440  3.41775770 17.37608180
   8.38126560 -3.41775770  8.12758180
   5.29573440 -3.41775770  1.12091820
   8.38126560 -3.41775770  1.12091820
   5.29573440  3.41775770 10.36941820
   8.38126560  3.41775770 10.36941820
  10.57642410 -1.20775060  0.96369370
  10.57642410  1.20775060 10.21219370
   3.10057590  1.20775060 17.53330630
  10.57642410  1.20775060 17.53330630
   3.10057590 -1.20775060  8.28480630
  10.57642410 -1.20775060  8.28480630
 


--------------------------------------------------------------------------------------------------------


 k-point  1 :   0.0000 0.0000 0.0000  plane waves:   29011

 maximum and minimum number of plane-waves per node :      2422     2415

 maximum number of plane-waves:     29011
 maximum index in each direction: 
   IXMAX=   15   IYMAX=   15   IZMAX=   30
   IXMIN=  -15   IYMIN=  -15   IZMIN=  -30


 real space projection operators:
  total allocation   :      19868.14 KBytes
  max/ min on nodes  :       1961.08       1484.97


 parallel 3D FFT for wavefunctions:
    minimum data exchange during FFTs selected (reduces bandwidth)
 parallel 3D FFT for charge:
    minimum data exchange during FFTs selected (reduces bandwidth)


 total amount of memory used by VASP MPI-rank0    89410. kBytes
=======================================================================

   base      :      30000. kBytes
   nonlr-proj:       8823. kBytes
   fftplans  :      13338. kBytes
   grid      :      27645. kBytes
   one-center:        108. kBytes
   wavefun   :       9496. kBytes
 
     INWAV:  cpu time    0.0000: real time    0.0001
 Broyden mixing: mesh for mixing (old mesh)
   NGX = 31   NGY = 31   NGZ = 61
  (NGX  =128   NGY  =128   NGZ  =252)
  gives a total of  58621 points

 initial charge density was supplied:
 charge density of overlapping atoms calculated
 number of electron     401.0000000 magnetization 
 keeping initial charge density in first step


--------------------------------------------------------------------------------------------------------


 Maximum index for non-local projection operator          633
 Maximum index for augmentation-charges         1109 (set IRDMAX)


--------------------------------------------------------------------------------------------------------


 First call to EWALD:  gamma=   0.152
 Maximum number of real-space cells 3x 3x 2
 Maximum number of reciprocal cells 2x 2x 4

    FEWALD:  cpu time    0.0060: real time    0.0064


--------------------------------------- Iteration      1(   1)  ---------------------------------------


    POTLOK:  cpu time    0.4989: real time    0.5021
    SETDIJ:  cpu time    0.0190: real time    0.0183
    EDDIAG:  cpu time    0.9549: real time    0.9849
  RMM-DIIS:  cpu time    1.2238: real time    1.2259
    ORTHCH:  cpu time    0.0960: real time    0.0958
       DOS:  cpu time    0.0010: real time    0.0011
    --------------------------------------------
      LOOP:  cpu time    2.7936: real time    2.8280

 eigenvalue-minimisations  :   240
 total energy-change (2. order) : 0.5858021E+04  (-0.1306982E+05)
 number of electron     401.0000000 magnetization 
 augmentation part      401.0000000 magnetization 

 Free energy of the ion-electron system (eV)
  ---------------------------------------------------
  alpha Z        PSCENC =       351.72633640
  Ewald energy   TEWEN  =     -2483.81342250
  -Hartree energ DENC   =    -20678.81812202
  -exchange      EXHF   =         0.00000000
  -V(xc)+E(xc)   XCENC  =      1131.54948734
  PAW double counting   =     15068.68239711   -14875.10108968
  entropy T*S    EENTRO =        -0.55867652
  eigenvalues    EBANDS =      1587.86532179
  atomic energy  EATOM  =     25756.48864006
  Solvation  Ediel_sol  =         0.00000000
  ---------------------------------------------------
  free energy    TOTEN  =      5858.02087197 eV

  energy without entropy =     5858.57954849  energy(sigma->0) =     5858.30021023


--------------------------------------------------------------------------------------------------------




--------------------------------------- Iteration      1(   2)  ---------------------------------------


    EDDIAG:  cpu time    0.4899: real time    0.4908
  RMM-DIIS:  cpu time    1.2118: real time    1.2140
    ORTHCH:  cpu time    0.0960: real time    0.0959
       DOS:  cpu time    0.0010: real time    0.0011
    --------------------------------------------
      LOOP:  cpu time    1.7987: real time    1.8018

 eigenvalue-minimisations  :   240
 total energy-change (2. order) :-0.3593043E+04  (-0.4403788E+04)
 number of electron     401.0000000 magnetization 
 augmentation part      401.0000000 magnetization 

 Free energy of the ion-electron system (eV)
  ---------------------------------------------------
  alpha Z        PSCENC =       351.72633640
  Ewald energy   TEWEN  =     -2483.81342250
  -Hartree energ DENC   =    -20678.81812202
  -exchange      EXHF   =         0.00000000
  -V(xc)+E(xc)   XCENC  =      1131.54948734
  PAW double counting   =     15068.68239711   -14875.10108968
  entropy T*S    EENTRO =        -0.41330633
  eigenvalues    EBANDS =     -2005.32291336
  atomic energy  EATOM  =     25756.48864006
  Solvation  Ediel_sol  =         0.00000000
  ---------------------------------------------------
  free energy    TOTEN  =      2264.97800701 eV

  energy without entropy =     2265.39131334  energy(sigma->0) =     2265.18466017


--------------------------------------------------------------------------------------------------------




--------------------------------------- Iteration      1(   3)  ---------------------------------------


    EDDIAG:  cpu time    0.4899: real time    0.4901
  RMM-DIIS:  cpu time    1.2138: real time    1.2144
    ORTHCH:  cpu time    0.0960: real time    0.0969
       DOS:  cpu time    0.0010: real time    0.0011
    --------------------------------------------
      LOOP:  cpu time    1.8007: real time    1.8025

 eigenvalue-minimisations  :   240
 total energy-change (2. order) :-0.1430011E+04  (-0.1798125E+04)
 number of electron     401.0000000 magnetization 
 augmentation part      401.0000000 magnetization 

 Free energy of the ion-electron system (eV)
  ---------------------------------------------------
  alpha Z        PSCENC =       351.72633640
  Ewald energy   TEWEN  =     -2483.81342250
  -Hartree energ DENC   =    -20678.81812202
  -exchange      EXHF   =         0.00000000
  -V(xc)+E(xc)   XCENC  =      1131.54948734
  PAW double counting   =     15068.68239711   -14875.10108968
  entropy T*S    EENTRO =        -0.47464595
  eigenvalues    EBANDS =     -3435.27252839
  atomic energy  EATOM  =     25756.48864006
  Solvation  Ediel_sol  =         0.00000000
  ---------------------------------------------------
  free energy    TOTEN  =       834.96705235 eV

  energy without entropy =      835.44169831  energy(sigma->0) =      835.20437533


--------------------------------------------------------------------------------------------------------




--------------------------------------- Iteration      1(   4)  ---------------------------------------


    EDDIAG:  cpu time    0.4889: real time    0.4895
  RMM-DIIS:  cpu time    1.2198: real time    1.2211
    ORTHCH:  cpu time    0.0960: real time    0.0959
       DOS:  cpu time    0.0010: real time    0.0010
    --------------------------------------------
      LOOP:  cpu time    1.8057: real time    1.8076

 eigenvalue-minimisations  :   240
 total energy-change (2. order) :-0.7112614E+03  (-0.6465007E+03)
 number of electron     401.0000000 magnetization 
 augmentation part      401.0000000 magnetization 

 Free energy of the ion-electron system (eV)
  ---------------------------------------------------
  alpha Z        PSCENC =       351.72633640
  Ewald energy   TEWEN  =     -2483.81342250
  -Hartree energ DENC   =    -20678.81812202
  -exchange      EXHF   =         0.00000000
  -V(xc)+E(xc)   XCENC  =      1131.54948734
  PAW double counting   =     15068.68239711   -14875.10108968
  entropy T*S    EENTRO =        -0.25528216
  eigenvalues    EBANDS =     -4146.75333989
  atomic energy  EATOM  =     25756.48864006
  Solvation  Ediel_sol  =         0.00000000
  ---------------------------------------------------
  free energy    TOTEN  =       123.70560465 eV

  energy without entropy =      123.96088681  energy(sigma->0) =      123.83324573


--------------------------------------------------------------------------------------------------------




--------------------------------------- Iteration      1(   5)  ---------------------------------------


    EDDIAG:  cpu time    0.4909: real time    0.4915
  RMM-DIIS:  cpu time    1.2118: real time    1.2134
    ORTHCH:  cpu time    0.0960: real time    0.0958
       DOS:  cpu time    0.0010: real time    0.0011
    --------------------------------------------
      LOOP:  cpu time    1.7997: real time    1.8018

 eigenvalue-minimisations  :   240
 total energy-change (2. order) :-0.3449687E+03  (-0.2539471E+03)
 number of electron     401.0000000 magnetization 
 augmentation part      401.0000000 magnetization 

 Free energy of the ion-electron system (eV)
  ---------------------------------------------------
  alpha Z        PSCENC =       351.72633640
  Ewald energy   TEWEN  =     -2483.81342250
  -Hartree energ DENC   =    -20678.81812202
  -exchange      EXHF   =         0.00000000
  -V(xc)+E(xc)   XCENC  =      1131.54948734
  PAW double counting   =     15068.68239711   -14875.10108968
  entropy T*S    EENTRO =        -0.40929535
  eigenvalues    EBANDS =     -4491.56803128
  atomic energy  EATOM  =     25756.48864006
  Solvation  Ediel_sol  =         0.00000000
  ---------------------------------------------------
  free energy    TOTEN  =      -221.26309993 eV

  energy without entropy =     -220.85380458  energy(sigma->0) =     -221.05845226


--------------------------------------------------------------------------------------------------------




--------------------------------------- Iteration      1(   6)  ---------------------------------------


    EDDIAG:  cpu time    0.4899: real time    0.4907
  RMM-DIIS:  cpu time    1.2118: real time    1.2130
    ORTHCH:  cpu time    0.0950: real time    0.0958
       DOS:  cpu time    0.0020: real time    0.0011
    --------------------------------------------
      LOOP:  cpu time    1.7987: real time    1.8005

 eigenvalue-minimisations  :   240
 total energy-change (2. order) :-0.1808786E+03  (-0.1294164E+03)
 number of electron     401.0000000 magnetization 
 augmentation part      401.0000000 magnetization 

 Free energy of the ion-electron system (eV)
  ---------------------------------------------------
  alpha Z        PSCENC =       351.72633640
  Ewald energy   TEWEN  =     -2483.81342250
  -Hartree energ DENC   =    -20678.81812202
  -exchange      EXHF   =         0.00000000
  -V(xc)+E(xc)   XCENC  =      1131.54948734
  PAW double counting   =     15068.68239711   -14875.10108968
  entropy T*S    EENTRO =        -0.72852254
  eigenvalues    EBANDS =     -4672.12740329
  atomic energy  EATOM  =     25756.48864006
  Solvation  Ediel_sol  =         0.00000000
  ---------------------------------------------------
  free energy    TOTEN  =      -402.14169914 eV

  energy without entropy =     -401.41317659  energy(sigma->0) =     -401.77743786


--------------------------------------------------------------------------------------------------------




--------------------------------------- Iteration      1(   7)  ---------------------------------------


    EDDIAG:  cpu time    0.4989: real time    0.4996
  RMM-DIIS:  cpu time    1.2118: real time    1.2140
    ORTHCH:  cpu time    0.0960: real time    0.0957
       DOS:  cpu time    0.0010: real time    0.0011
    --------------------------------------------
      LOOP:  cpu time    1.8077: real time    1.8104

 eigenvalue-minimisations  :   240
 total energy-change (2. order) :-0.1076334E+03  (-0.8150233E+02)
 number of electron     401.0000000 magnetization 
 augmentation part      401.0000000 magnetization 

 Free energy of the ion-electron system (eV)
  ---------------------------------------------------
  alpha Z        PSCENC =       351.72633640
  Ewald energy   TEWEN  =     -2483.81342250
  -Hartree energ DENC   =    -20678.81812202
  -exchange      EXHF   =         0.00000000
  -V(xc)+E(xc)   XCENC  =      1131.54948734
  PAW double counting   =     15068.68239711   -14875.10108968
  entropy T*S    EENTRO =        -0.66875354
  eigenvalues    EBANDS =     -4779.82052512
  atomic energy  EATOM  =     25756.48864006
  Solvation  Ediel_sol  =         0.00000000
  ---------------------------------------------------
  free energy    TOTEN  =      -509.77505196 eV

  energy without entropy =     -509.10629842  energy(sigma->0) =     -509.44067519


--------------------------------------------------------------------------------------------------------




--------------------------------------- Iteration      1(   8)  ---------------------------------------


    EDDIAG:  cpu time    0.4909: real time    0.4914
  RMM-DIIS:  cpu time    1.2108: real time    1.2118
    ORTHCH:  cpu time    0.0960: real time    0.0970
       DOS:  cpu time    0.0010: real time    0.0011
    --------------------------------------------
      LOOP:  cpu time    1.7987: real time    1.8013

 eigenvalue-minimisations  :   240
 total energy-change (2. order) :-0.6040296E+02  (-0.4366845E+02)
 number of electron     401.0000000 magnetization 
 augmentation part      401.0000000 magnetization 

 Free energy of the ion-electron system (eV)
  ---------------------------------------------------
  alpha Z        PSCENC =       351.72633640
  Ewald energy   TEWEN  =     -2483.81342250
  -Hartree energ DENC   =    -20678.81812202
  -exchange      EXHF   =         0.00000000
  -V(xc)+E(xc)   XCENC  =      1131.54948734
  PAW double counting   =     15068.68239711   -14875.10108968
  entropy T*S    EENTRO =        -0.64728743
  eigenvalues    EBANDS =     -4840.24495567
  atomic energy  EATOM  =     25756.48864006
  Solvation  Ediel_sol  =         0.00000000
  ---------------------------------------------------
  free energy    TOTEN  =      -570.17801640 eV

  energy without entropy =     -569.53072897  energy(sigma->0) =     -569.85437268


--------------------------------------------------------------------------------------------------------




--------------------------------------- Iteration      1(   9)  ---------------------------------------


    EDDIAG:  cpu time    0.4899: real time    0.4902
  RMM-DIIS:  cpu time    3.8194: real time    3.8470
    ORTHCH:  cpu time    0.0960: real time    0.0958
       DOS:  cpu time    0.0010: real time    0.0011
    --------------------------------------------
      LOOP:  cpu time    4.4063: real time    4.4341

 eigenvalue-minimisations  :   752
 total energy-change (2. order) :-0.8992239E+02  (-0.8075551E+02)
 number of electron     401.0000000 magnetization 
 augmentation part      401.0000000 magnetization 

 Free energy of the ion-electron system (eV)
  ---------------------------------------------------
  alpha Z        PSCENC =       351.72633640
  Ewald energy   TEWEN  =     -2483.81342250
  -Hartree energ DENC   =    -20678.81812202
  -exchange      EXHF   =         0.00000000
  -V(xc)+E(xc)   XCENC  =      1131.54948734
  PAW double counting   =     15068.68239711   -14875.10108968
  entropy T*S    EENTRO =        -0.66043744
  eigenvalues    EBANDS =     -4930.15419489
  atomic energy  EATOM  =     25756.48864006
  Solvation  Ediel_sol  =         0.00000000
  ---------------------------------------------------
  free energy    TOTEN  =      -660.10040563 eV

  energy without entropy =     -659.43996819  energy(sigma->0) =     -659.77018691


--------------------------------------------------------------------------------------------------------




--------------------------------------- Iteration      1(  10)  ---------------------------------------


    EDDIAG:  cpu time    0.4919: real time    0.4915
  RMM-DIIS:  cpu time    3.4685: real time    3.4824
    ORTHCH:  cpu time    0.0960: real time    0.0961
       DOS:  cpu time    0.0010: real time    0.0011
    --------------------------------------------
      LOOP:  cpu time    4.0574: real time    4.0711

 eigenvalue-minimisations  :   767
 total energy-change (2. order) :-0.5543137E+00  (-0.2178410E+01)
 number of electron     401.0000000 magnetization 
 augmentation part      401.0000000 magnetization 

 Free energy of the ion-electron system (eV)
  ---------------------------------------------------
  alpha Z        PSCENC =       351.72633640
  Ewald energy   TEWEN  =     -2483.81342250
  -Hartree energ DENC   =    -20678.81812202
  -exchange      EXHF   =         0.00000000
  -V(xc)+E(xc)   XCENC  =      1131.54948734
  PAW double counting   =     15068.68239711   -14875.10108968
  entropy T*S    EENTRO =        -0.64822637
  eigenvalues    EBANDS =     -4930.72071970
  atomic energy  EATOM  =     25756.48864006
  Solvation  Ediel_sol  =         0.00000000
  ---------------------------------------------------
  free energy    TOTEN  =      -660.65471937 eV

  energy without entropy =     -660.00649300  energy(sigma->0) =     -660.33060619


--------------------------------------------------------------------------------------------------------




--------------------------------------- Iteration      1(  11)  ---------------------------------------


    EDDIAG:  cpu time    0.4909: real time    0.4921
  RMM-DIIS:  cpu time    3.4865: real time    3.4962
    ORTHCH:  cpu time    0.0950: real time    0.0958
       DOS:  cpu time    0.0020: real time    0.0011
    --------------------------------------------
      LOOP:  cpu time    4.0744: real time    4.0852

 eigenvalue-minimisations  :   767
 total energy-change (2. order) :-0.1435359E-01  (-0.5714706E-01)
 number of electron     401.0000000 magnetization 
 augmentation part      401.0000000 magnetization 

 Free energy of the ion-electron system (eV)
  ---------------------------------------------------
  alpha Z        PSCENC =       351.72633640
  Ewald energy   TEWEN  =     -2483.81342250
  -Hartree energ DENC   =    -20678.81812202
  -exchange      EXHF   =         0.00000000
  -V(xc)+E(xc)   XCENC  =      1131.54948734
  PAW double counting   =     15068.68239711   -14875.10108968
  entropy T*S    EENTRO =        -0.64808325
  eigenvalues    EBANDS =     -4930.73521641
  atomic energy  EATOM  =     25756.48864006
  Solvation  Ediel_sol  =         0.00000000
  ---------------------------------------------------
  free energy    TOTEN  =      -660.66907296 eV

  energy without entropy =     -660.02098971  energy(sigma->0) =     -660.34503133


--------------------------------------------------------------------------------------------------------




--------------------------------------- Iteration      1(  12)  ---------------------------------------


    EDDIAG:  cpu time    0.4919: real time    0.4937
  RMM-DIIS:  cpu time    3.5685: real time    3.7084
    ORTHCH:  cpu time    0.0960: real time    0.0959
       DOS:  cpu time    0.0010: real time    0.0010
    CHARGE:  cpu time    0.1890: real time    0.1889
    MIXING:  cpu time    0.0100: real time    0.0104
    --------------------------------------------
      LOOP:  cpu time    4.3563: real time    4.4985

 eigenvalue-minimisations  :   754
 total energy-change (2. order) :-0.9888007E-02  (-0.9476273E-02)
 number of electron     400.9999996 magnetization 
 augmentation part       47.3672234 magnetization 

 Broyden mixing:
  rms(total) = 0.62792E+01    rms(broyden)= 0.62753E+01
  rms(prec ) = 0.70739E+01
  weight for this iteration     100.00

 Free energy of the ion-electron system (eV)
  ---------------------------------------------------
  alpha Z        PSCENC =       351.72633640
  Ewald energy   TEWEN  =     -2483.81342250
  -Hartree energ DENC   =    -20678.81812202
  -exchange      EXHF   =         0.00000000
  -V(xc)+E(xc)   XCENC  =      1131.54948734
  PAW double counting   =     15068.68239711   -14875.10108968
  entropy T*S    EENTRO =        -0.64810234
  eigenvalues    EBANDS =     -4930.74508532
  atomic energy  EATOM  =     25756.48864006
  Solvation  Ediel_sol  =         0.00000000
  ---------------------------------------------------
  free energy    TOTEN  =      -660.67896096 eV

  energy without entropy =     -660.03085862  energy(sigma->0) =     -660.35490979


--------------------------------------------------------------------------------------------------------




--------------------------------------- Iteration      1(  13)  ---------------------------------------


    POTLOK:  cpu time    0.3499: real time    0.3512
    SETDIJ:  cpu time    0.0170: real time    0.0169
    EDDIAG:  cpu time    0.4889: real time    0.4889
  RMM-DIIS:  cpu time    3.0715: real time    3.0720
    ORTHCH:  cpu time    0.0960: real time    0.0964
       DOS:  cpu time    0.0020: real time    0.0012
    CHARGE:  cpu time    0.1770: real time    0.1776
    MIXING:  cpu time    0.0120: real time    0.0135
    --------------------------------------------
      LOOP:  cpu time    4.2144: real time    4.2177

 eigenvalue-minimisations  :   673
 total energy-change (2. order) : 0.6680955E+02  (-0.7045198E+02)
 number of electron     401.0000003 magnetization 
 augmentation part       46.4385594 magnetization 

 Broyden mixing:
  rms(total) = 0.34418E+01    rms(broyden)= 0.34391E+01
  rms(prec ) = 0.38313E+01
  weight for this iteration     100.00

 eigenvalues of (default mixing * dielectric matrix)
  average eigenvalue GAMMA=   0.7007
  0.7007

 Free energy of the ion-electron system (eV)
  ---------------------------------------------------
  alpha Z        PSCENC =       351.72633640
  Ewald energy   TEWEN  =     -2483.81342250
  -Hartree energ DENC   =    -21461.63204683
  -exchange      EXHF   =         0.00000000
  -V(xc)+E(xc)   XCENC  =      1185.97497677
  PAW double counting   =     17292.39630149   -17075.79864522
  entropy T*S    EENTRO =        -0.47707925
  eigenvalues    EBANDS =     -4158.73446740
  atomic energy  EATOM  =     25756.48864006
  Solvation  Ediel_sol  =         0.00000000
  ---------------------------------------------------
  free energy    TOTEN  =      -593.86940649 eV

  energy without entropy =     -593.39232724  energy(sigma->0) =     -593.63086687


--------------------------------------------------------------------------------------------------------




--------------------------------------- Iteration      1(  14)  ---------------------------------------


    POTLOK:  cpu time    0.3509: real time    0.3510
    SETDIJ:  cpu time    0.0170: real time    0.0170
    EDDIAG:  cpu time    0.4949: real time    0.4959
  RMM-DIIS:  cpu time    2.8046: real time    2.8046
    ORTHCH:  cpu time    0.0970: real time    0.0969
       DOS:  cpu time    0.0010: real time    0.0012
    CHARGE:  cpu time    0.1780: real time    0.1773
    MIXING:  cpu time    0.0090: real time    0.0121
    --------------------------------------------
      LOOP:  cpu time    3.9524: real time    3.9560

 eigenvalue-minimisations  :   609
 total energy-change (2. order) : 0.4038581E+02  (-0.1177306E+02)
 number of electron     401.0000002 magnetization 
 augmentation part       44.7384837 magnetization 

 Broyden mixing:
  rms(total) = 0.16939E+01    rms(broyden)= 0.16922E+01
  rms(prec ) = 0.19191E+01
  weight for this iteration     100.00

 eigenvalues of (default mixing * dielectric matrix)
  average eigenvalue GAMMA=   0.8205
  0.8205  0.8205

 Free energy of the ion-electron system (eV)
  ---------------------------------------------------
  alpha Z        PSCENC =       351.72633640
  Ewald energy   TEWEN  =     -2483.81342250
  -Hartree energ DENC   =    -21671.14317684
  -exchange      EXHF   =         0.00000000
  -V(xc)+E(xc)   XCENC  =      1195.20586432
  PAW double counting   =     17930.30428969   -17761.52902865
  entropy T*S    EENTRO =        -0.28122666
  eigenvalues    EBANDS =     -3870.44187286
  atomic energy  EATOM  =     25756.48864006
  Solvation  Ediel_sol  =         0.00000000
  ---------------------------------------------------
  free energy    TOTEN  =      -553.48359706 eV

  energy without entropy =     -553.20237039  energy(sigma->0) =     -553.34298372


--------------------------------------------------------------------------------------------------------




--------------------------------------- Iteration      1(  15)  ---------------------------------------


    POTLOK:  cpu time    0.3449: real time    0.3455
    SETDIJ:  cpu time    0.0170: real time    0.0165
    EDDIAG:  cpu time    0.4909: real time    0.4910
  RMM-DIIS:  cpu time    3.2545: real time    3.2554
    ORTHCH:  cpu time    0.0960: real time    0.0958
       DOS:  cpu time    0.0010: real time    0.0012
    CHARGE:  cpu time    0.1790: real time    0.1786
    MIXING:  cpu time    0.0080: real time    0.0087
    --------------------------------------------
      LOOP:  cpu time    4.3913: real time    4.3926

 eigenvalue-minimisations  :   710
 total energy-change (2. order) :-0.8259734E+00  (-0.2979871E+01)
 number of electron     400.9999999 magnetization 
 augmentation part       42.6213934 magnetization 

 Broyden mixing:
  rms(total) = 0.18274E+01    rms(broyden)= 0.18250E+01
  rms(prec ) = 0.21171E+01
  weight for this iteration     100.00

 eigenvalues of (default mixing * dielectric matrix)
  average eigenvalue GAMMA=   0.6763
  0.8272  0.8272  0.3747

 Free energy of the ion-electron system (eV)
  ---------------------------------------------------
  alpha Z        PSCENC =       351.72633640
  Ewald energy   TEWEN  =     -2483.81342250
  -Hartree energ DENC   =    -21776.01718331
  -exchange      EXHF   =         0.00000000
  -V(xc)+E(xc)   XCENC  =      1200.53151886
  PAW double counting   =     18308.63125061   -18145.95170508
  entropy T*S    EENTRO =        -0.29822482
  eigenvalues    EBANDS =     -3765.60678064
  atomic energy  EATOM  =     25756.48864006
  Solvation  Ediel_sol  =         0.00000000
  ---------------------------------------------------
  free energy    TOTEN  =      -554.30957043 eV

  energy without entropy =     -554.01134562  energy(sigma->0) =     -554.16045802


--------------------------------------------------------------------------------------------------------




--------------------------------------- Iteration      1(  16)  ---------------------------------------


    POTLOK:  cpu time    0.3459: real time    0.3453
    SETDIJ:  cpu time    0.0170: real time    0.0170
    EDDIAG:  cpu time    0.4909: real time    0.4910
  RMM-DIIS:  cpu time    3.0325: real time    3.0332
    ORTHCH:  cpu time    0.0960: real time    0.0958
       DOS:  cpu time    0.0010: real time    0.0012
    CHARGE:  cpu time    0.1780: real time    0.1787
    MIXING:  cpu time    0.0100: real time    0.0107
    --------------------------------------------
      LOOP:  cpu time    4.1714: real time    4.1728

 eigenvalue-minimisations  :   660
 total energy-change (2. order) :-0.2784596E+00  (-0.8271448E+00)
 number of electron     401.0000007 magnetization 
 augmentation part       43.0223799 magnetization 

 Broyden mixing:
  rms(total) = 0.13864E+01    rms(broyden)= 0.13826E+01
  rms(prec ) = 0.16119E+01
  weight for this iteration     100.00

 eigenvalues of (default mixing * dielectric matrix)
  average eigenvalue GAMMA=   0.6338
  0.8795  0.8795  0.4746  0.3014

 Free energy of the ion-electron system (eV)
  ---------------------------------------------------
  alpha Z        PSCENC =       351.72633640
  Ewald energy   TEWEN  =     -2483.81342250
  -Hartree energ DENC   =    -21794.32252953
  -exchange      EXHF   =         0.00000000
  -V(xc)+E(xc)   XCENC  =      1201.33942946
  PAW double counting   =     18433.26892762   -18266.86982552
  entropy T*S    EENTRO =        -0.38885385
  eigenvalues    EBANDS =     -3752.01673218
  atomic energy  EATOM  =     25756.48864006
  Solvation  Ediel_sol  =         0.00000000
  ---------------------------------------------------
  free energy    TOTEN  =      -554.58803007 eV

  energy without entropy =     -554.19917622  energy(sigma->0) =     -554.39360314


--------------------------------------------------------------------------------------------------------




--------------------------------------- Iteration      1(  17)  ---------------------------------------


    POTLOK:  cpu time    0.3449: real time    0.3454
    SETDIJ:  cpu time    0.0170: real time    0.0167
    EDDIAG:  cpu time    0.4889: real time    0.4890
  RMM-DIIS:  cpu time    3.0095: real time    3.0099
    ORTHCH:  cpu time    0.0960: real time    0.0959
       DOS:  cpu time    0.0010: real time    0.0012
    CHARGE:  cpu time    0.1780: real time    0.1781
    MIXING:  cpu time    0.0100: real time    0.0098
    --------------------------------------------
      LOOP:  cpu time    4.1454: real time    4.1458

 eigenvalue-minimisations  :   655
 total energy-change (2. order) : 0.1381875E+01  (-0.3259802E+00)
 number of electron     401.0000002 magnetization 
 augmentation part       43.7652653 magnetization 

 Broyden mixing:
  rms(total) = 0.10515E+01    rms(broyden)= 0.10490E+01
  rms(prec ) = 0.12784E+01
  weight for this iteration     100.00

 eigenvalues of (default mixing * dielectric matrix)
  average eigenvalue GAMMA=   0.7133
  1.1802  1.1802  0.4824  0.4824  0.2412

 Free energy of the ion-electron system (eV)
  ---------------------------------------------------
  alpha Z        PSCENC =       351.72633640
  Ewald energy   TEWEN  =     -2483.81342250
  -Hartree energ DENC   =    -21804.19114583
  -exchange      EXHF   =         0.00000000
  -V(xc)+E(xc)   XCENC  =      1201.42992716
  PAW double counting   =     18520.82233293   -18351.36991591
  entropy T*S    EENTRO =        -0.42965039
  eigenvalues    EBANDS =     -3743.86925742
  atomic energy  EATOM  =     25756.48864006
  Solvation  Ediel_sol  =         0.00000000
  ---------------------------------------------------
  free energy    TOTEN  =      -553.20615552 eV

  energy without entropy =     -552.77650513  energy(sigma->0) =     -552.99133032


--------------------------------------------------------------------------------------------------------




--------------------------------------- Iteration      1(  18)  ---------------------------------------


    POTLOK:  cpu time    0.3459: real time    0.3458
    SETDIJ:  cpu time    0.0160: real time    0.0168
    EDDIAG:  cpu time    0.4889: real time    0.4884
  RMM-DIIS:  cpu time    3.1765: real time    3.1775
    ORTHCH:  cpu time    0.1040: real time    0.1037
       DOS:  cpu time    0.0010: real time    0.0011
    CHARGE:  cpu time    0.1790: real time    0.1785
    MIXING:  cpu time    0.0090: real time    0.0094
    --------------------------------------------
      LOOP:  cpu time    4.3203: real time    4.3213

 eigenvalue-minimisations  :   694
 total energy-change (2. order) : 0.6060310E+00  (-0.3719855E+00)
 number of electron     401.0000002 magnetization 
 augmentation part       43.6032719 magnetization 

 Broyden mixing:
  rms(total) = 0.76073E+00    rms(broyden)= 0.75864E+00
  rms(prec ) = 0.92307E+00
  weight for this iteration     100.00

 eigenvalues of (default mixing * dielectric matrix)
  average eigenvalue GAMMA=   0.7390
  1.6130  1.2763  0.4642  0.4642  0.4025  0.2138

 Free energy of the ion-electron system (eV)
  ---------------------------------------------------
  alpha Z        PSCENC =       351.72633640
  Ewald energy   TEWEN  =     -2483.81342250
  -Hartree energ DENC   =    -21844.06470930
  -exchange      EXHF   =         0.00000000
  -V(xc)+E(xc)   XCENC  =      1202.66979033
  PAW double counting   =     18664.39946629   -18495.68842710
  entropy T*S    EENTRO =        -0.36498091
  eigenvalues    EBANDS =     -3703.95281779
  atomic energy  EATOM  =     25756.48864006
  Solvation  Ediel_sol  =         0.00000000
  ---------------------------------------------------
  free energy    TOTEN  =      -552.60012453 eV

  energy without entropy =     -552.23514362  energy(sigma->0) =     -552.41763407


--------------------------------------------------------------------------------------------------------




--------------------------------------- Iteration      1(  19)  ---------------------------------------


    POTLOK:  cpu time    0.3439: real time    0.3451
    SETDIJ:  cpu time    0.0170: real time    0.0169
    EDDIAG:  cpu time    0.4909: real time    0.4909
  RMM-DIIS:  cpu time    3.2435: real time    3.2446
    ORTHCH:  cpu time    0.0960: real time    0.0958
       DOS:  cpu time    0.0010: real time    0.0012
    CHARGE:  cpu time    0.1780: real time    0.1781
    MIXING:  cpu time    0.0100: real time    0.0100
    --------------------------------------------
      LOOP:  cpu time    4.3813: real time    4.3824

 eigenvalue-minimisations  :   710
 total energy-change (2. order) :-0.3306862E-01  (-0.2289302E+00)
 number of electron     401.0000000 magnetization 
 augmentation part       42.4344229 magnetization 

 Broyden mixing:
  rms(total) = 0.13100E+01    rms(broyden)= 0.13080E+01
  rms(prec ) = 0.15689E+01
  weight for this iteration     100.00

 eigenvalues of (default mixing * dielectric matrix)
  average eigenvalue GAMMA=   0.7392
  1.9740  0.9587  0.9587  0.3925  0.3399  0.3399  0.2106

 Free energy of the ion-electron system (eV)
  ---------------------------------------------------
  alpha Z        PSCENC =       351.72633640
  Ewald energy   TEWEN  =     -2483.81342250
  -Hartree energ DENC   =    -21889.61561417
  -exchange      EXHF   =         0.00000000
  -V(xc)+E(xc)   XCENC  =      1204.25384819
  PAW double counting   =     18826.15244947   -18656.19901524
  entropy T*S    EENTRO =        -0.40385029
  eigenvalues    EBANDS =     -3661.22256506
  atomic energy  EATOM  =     25756.48864006
  Solvation  Ediel_sol  =         0.00000000
  ---------------------------------------------------
  free energy    TOTEN  =      -552.63319315 eV

  energy without entropy =     -552.22934286  energy(sigma->0) =     -552.43126801


--------------------------------------------------------------------------------------------------------




--------------------------------------- Iteration      1(  20)  ---------------------------------------


    POTLOK:  cpu time    0.3479: real time    0.3471
    SETDIJ:  cpu time    0.0160: real time    0.0168
    EDDIAG:  cpu time    0.4999: real time    0.4997
  RMM-DIIS:  cpu time    2.8536: real time    2.8541
    ORTHCH:  cpu time    0.0960: real time    0.0959
       DOS:  cpu time    0.0010: real time    0.0012
    CHARGE:  cpu time    0.1780: real time    0.1775
    MIXING:  cpu time    0.0110: real time    0.0112
    --------------------------------------------
      LOOP:  cpu time    4.0024: real time    4.0033

 eigenvalue-minimisations  :   620
 total energy-change (2. order) : 0.1127416E+00  (-0.1840387E+00)
 number of electron     401.0000002 magnetization 
 augmentation part       43.6948671 magnetization 

 Broyden mixing:
  rms(total) = 0.68028E+00    rms(broyden)= 0.67702E+00
  rms(prec ) = 0.80023E+00
  weight for this iteration     100.00

 eigenvalues of (default mixing * dielectric matrix)
  average eigenvalue GAMMA=   0.7073
  2.1820  1.1172  0.6973  0.4052  0.4052  0.3225  0.3225  0.2066

 Free energy of the ion-electron system (eV)
  ---------------------------------------------------
  alpha Z        PSCENC =       351.72633640
  Ewald energy   TEWEN  =     -2483.81342250
  -Hartree energ DENC   =    -21901.25885081
  -exchange      EXHF   =         0.00000000
  -V(xc)+E(xc)   XCENC  =      1204.98343873
  PAW double counting   =     18867.05418428   -18692.96366168
  entropy T*S    EENTRO =        -0.49565230
  eigenvalues    EBANDS =     -3654.24146374
  atomic energy  EATOM  =     25756.48864006
  Solvation  Ediel_sol  =         0.00000000
  ---------------------------------------------------
  free energy    TOTEN  =      -552.52045158 eV

  energy without entropy =     -552.02479928  energy(sigma->0) =     -552.27262543


--------------------------------------------------------------------------------------------------------




--------------------------------------- Iteration      1(  21)  ---------------------------------------


    POTLOK:  cpu time    0.3439: real time    0.3440
    SETDIJ:  cpu time    0.0170: real time    0.0173
    EDDIAG:  cpu time    0.4899: real time    0.4901
  RMM-DIIS:  cpu time    3.0145: real time    3.0150
    ORTHCH:  cpu time    0.0960: real time    0.0958
       DOS:  cpu time    0.0010: real time    0.0012
    CHARGE:  cpu time    0.1790: real time    0.1786
    MIXING:  cpu time    0.0100: real time    0.0103
    --------------------------------------------
      LOOP:  cpu time    4.1514: real time    4.1523

 eigenvalue-minimisations  :   657
 total energy-change (2. order) : 0.6196388E+00  (-0.4027551E-01)
 number of electron     401.0000003 magnetization 
 augmentation part       43.6914862 magnetization 

 Broyden mixing:
  rms(total) = 0.34422E+00    rms(broyden)= 0.34330E+00
  rms(prec ) = 0.41645E+00
  weight for this iteration     100.00

 eigenvalues of (default mixing * dielectric matrix)
  average eigenvalue GAMMA=   0.7016
  2.2715  1.0587  0.6457  0.6457  0.4471  0.4471  0.2920  0.2920  0.2142

 Free energy of the ion-electron system (eV)
  ---------------------------------------------------
  alpha Z        PSCENC =       351.72633640
  Ewald energy   TEWEN  =     -2483.81342250
  -Hartree energ DENC   =    -21911.45305878
  -exchange      EXHF   =         0.00000000
  -V(xc)+E(xc)   XCENC  =      1205.22885206
  PAW double counting   =     18900.14306976   -18726.19260835
  entropy T*S    EENTRO =        -0.49341280
  eigenvalues    EBANDS =     -3643.53520861
  atomic energy  EATOM  =     25756.48864006
  Solvation  Ediel_sol  =         0.00000000
  ---------------------------------------------------
  free energy    TOTEN  =      -551.90081278 eV

  energy without entropy =     -551.40739997  energy(sigma->0) =     -551.65410637


--------------------------------------------------------------------------------------------------------




--------------------------------------- Iteration      1(  22)  ---------------------------------------


    POTLOK:  cpu time    0.3459: real time    0.3464
    SETDIJ:  cpu time    0.0170: real time    0.0166
    EDDIAG:  cpu time    0.4869: real time    0.4866
  RMM-DIIS:  cpu time    2.9176: real time    2.9184
    ORTHCH:  cpu time    0.0960: real time    0.0959
       DOS:  cpu time    0.0010: real time    0.0011
    CHARGE:  cpu time    0.1780: real time    0.1775
    MIXING:  cpu time    0.0120: real time    0.0121
    --------------------------------------------
      LOOP:  cpu time    4.0544: real time    4.0546

 eigenvalue-minimisations  :   632
 total energy-change (2. order) : 0.1667354E+00  (-0.4100653E-01)
 number of electron     401.0000002 magnetization 
 augmentation part       43.4450485 magnetization 

 Broyden mixing:
  rms(total) = 0.18241E+00    rms(broyden)= 0.18185E+00
  rms(prec ) = 0.22767E+00
  weight for this iteration     100.00

 eigenvalues of (default mixing * dielectric matrix)
  average eigenvalue GAMMA=   0.7047
  2.3896  0.9404  0.9404  0.5945  0.5945  0.3963  0.3963  0.2909  0.2909  0.2129

 Free energy of the ion-electron system (eV)
  ---------------------------------------------------
  alpha Z        PSCENC =       351.72633640
  Ewald energy   TEWEN  =     -2483.81342250
  -Hartree energ DENC   =    -21929.61650031
  -exchange      EXHF   =         0.00000000
  -V(xc)+E(xc)   XCENC  =      1205.97163432
  PAW double counting   =     18929.71942116   -18756.90559892
  entropy T*S    EENTRO =        -0.49849829
  eigenvalues    EBANDS =     -3624.80608923
  atomic energy  EATOM  =     25756.48864006
  Solvation  Ediel_sol  =         0.00000000
  ---------------------------------------------------
  free energy    TOTEN  =      -551.73407733 eV

  energy without entropy =     -551.23557904  energy(sigma->0) =     -551.48482819


--------------------------------------------------------------------------------------------------------




--------------------------------------- Iteration      1(  23)  ---------------------------------------


    POTLOK:  cpu time    0.3449: real time    0.3456
    SETDIJ:  cpu time    0.0170: real time    0.0169
    EDDIAG:  cpu time    0.4899: real time    0.4895
  RMM-DIIS:  cpu time    3.1665: real time    3.1671
    ORTHCH:  cpu time    0.0960: real time    0.0958
       DOS:  cpu time    0.0010: real time    0.0012
    CHARGE:  cpu time    0.1780: real time    0.1788
    MIXING:  cpu time    0.0120: real time    0.0113
    --------------------------------------------
      LOOP:  cpu time    4.3053: real time    4.3061

 eigenvalue-minimisations  :   691
 total energy-change (2. order) : 0.1111122E-01  (-0.1604326E-01)
 number of electron     401.0000002 magnetization 
[...]
  Hartree  6564.36018  7098.38076  8329.42648 -2399.52833    -7.81015   -43.32775
  E(xc)   -1914.23746 -1913.86022 -1913.33418    -0.51039    -0.03956     0.03046
  Local  -10390.66291-11615.99905-14354.09936  5143.09013    14.45734    83.31530
  n-local  -533.06803  -534.59519  -525.70018     2.71812    -0.09446     1.09137
  augment   423.72068   421.66404   419.39693     2.45040     0.27787    -0.82303
  Kinetic  7346.40764  7335.46018  7327.03689     7.68687     1.11553    -5.49218
  Fock        0.00000     0.00000     0.00000     0.00000     0.00000     0.00000
  vdW        -3.06525    -3.34775    -3.04140     0.24859    -0.01011     0.00263
  -------------------------------------------------------------------------------------
  Total      43.35491    43.40640    45.34620     0.52993     0.64080    -0.24938
  in kB      43.55870    43.61044    45.55936     0.53242     0.64381    -0.25056
  external pressure =       44.24 kB  Pullay stress =        0.00 kB


 VOLUME and BASIS-vectors are now :
 -----------------------------------------------------------------------------
  energy-cutoff  :      400.00
  volume of cell :     1594.68
      direct lattice vectors                 reciprocal lattice vectors
     6.838500000 -6.303500000  0.000000000     0.073115449 -0.079321012  0.000000000
     6.838500000  6.303500000  0.000000000     0.073115449  0.079321012  0.000000000
     0.000000000  0.000000000 18.497000000     0.000000000  0.000000000  0.054062821

  length of vectors
     9.300494315  9.300494315 18.497000000     0.107878134  0.107878134  0.054062821


 FORCES acting on ions
    electron-ion (+dipol)            ewald-force                    non-local-force                 convergence-correction
 -----------------------------------------------------------------------------------------------
   -.535E+02 -.184E+02 0.524E+02   0.529E+02 0.183E+02 -.523E+02   0.102E+01 0.338E+00 -.370E+00   0.133E-04 0.162E-03 0.406E-04
   -.409E+02 -.105E+02 0.159E+02   0.395E+02 0.116E+02 -.166E+02   0.127E+01 -.670E+00 -.370E-02   -.224E-04 0.168E-03 0.134E-03
   -.418E+02 -.510E+02 -.478E+02   0.431E+02 0.498E+02 0.502E+02   0.118E-01 0.985E+00 -.660E+00   0.142E-03 0.522E-04 -.211E-03
   -.376E+02 -.169E+02 0.272E+02   0.365E+02 0.176E+02 -.299E+02   0.882E+00 -.132E+00 0.120E+01   0.134E-03 -.141E-04 0.820E-03
   -.447E+02 -.143E+02 -.734E+02   0.446E+02 0.144E+02 0.731E+02   0.593E+00 0.751E-01 0.948E+00   0.460E-04 0.163E-03 -.681E-03
   0.173E+03 0.789E+02 0.220E+03   -.170E+03 -.766E+02 -.219E+03   -.267E+01 -.196E+01 -.649E+00   0.533E-03 0.518E-03 0.798E-04
   0.334E+02 0.652E+02 -.173E+03   -.346E+02 -.614E+02 0.173E+03   0.130E+01 -.332E+01 -.643E-01   0.252E-03 0.949E-04 0.236E-02
   0.188E+02 0.187E+03 0.693E+01   -.184E+02 -.206E+03 -.101E+02   -.114E+01 0.194E+02 0.278E+01   0.208E-03 0.214E-03 0.110E-02
   -.301E+01 -.195E+03 -.576E+02   0.343E+01 0.215E+03 0.542E+02   -.900E+00 -.195E+02 0.325E+01   -.491E-03 0.418E-03 -.172E-02
   -.233E+02 -.188E+03 0.577E+02   0.302E+02 0.204E+03 -.545E+02   -.114E+02 -.157E+02 -.294E+01   -.857E-03 0.568E-03 0.124E-03
   -.594E+01 0.180E+03 -.895E+01   0.126E+02 -.197E+03 0.125E+02   -.114E+02 0.155E+02 -.314E+01   0.296E-03 0.379E-03 0.227E-03
   -.197E+03 -.896E+02 -.279E+02   0.212E+03 0.937E+02 0.349E+02   -.143E+02 -.419E+01 -.116E+02   0.359E-04 0.164E-04 0.881E-03
   0.204E+03 0.768E+02 0.510E+01   -.222E+03 -.745E+02 -.438E+01   0.167E+02 -.194E+01 -.133E+01   0.376E-03 0.350E-03 0.761E-03
   -.230E+03 0.278E+01 -.219E+02   0.246E+03 -.560E+01 0.288E+02   -.150E+02 0.249E+01 -.112E+02   0.421E-03 0.650E-04 -.131E-02
   0.232E+03 0.804E+01 -.756E+00   -.250E+03 -.115E+02 0.853E+00   0.180E+02 0.336E+01 -.194E+00   -.791E-03 -.418E-04 -.991E-03
   -.129E+03 -.153E+03 -.119E+03   0.136E+03 0.163E+03 0.132E+03   -.767E+01 -.971E+01 -.130E+02   -.774E-04 -.122E-03 0.117E-02
   0.522E+02 -.510E+02 -.690E+02   -.577E+02 0.596E+02 0.795E+02   0.479E+01 -.782E+01 -.953E+01   0.963E-05 0.293E-03 0.119E-02
   -.118E+03 0.128E+03 -.202E+03   0.126E+03 -.138E+03 0.215E+03   -.775E+01 0.893E+01 -.130E+02   0.147E-03 -.408E-03 -.171E-02
   0.123E+03 0.137E+03 -.193E+03   -.131E+03 -.148E+03 0.205E+03   0.748E+01 0.106E+02 -.120E+02   -.386E-03 -.223E-03 -.124E-02
   0.119E+03 0.134E+03 0.194E+03   -.126E+03 -.145E+03 -.207E+03   0.659E+01 0.968E+01 0.125E+02   -.695E-03 -.363E-03 0.178E-03
   -.117E+03 0.111E+03 0.209E+03   0.123E+03 -.114E+03 -.224E+03   -.624E+01 -.105E+01 0.167E+02   0.233E-03 -.703E-03 0.521E-03
   0.104E+02 -.372E+02 0.433E+02   -.115E+02 0.474E+02 -.462E+02   -.630E+00 -.114E+02 -.147E+01   0.254E-03 0.344E-03 0.964E-05
   -.127E+03 -.133E+03 0.125E+03   0.133E+03 0.137E+03 -.140E+03   -.542E+01 0.536E-01 0.164E+02   -.160E-03 -.796E-04 0.280E-04
   -.534E+02 -.114E+02 -.307E+02   0.597E+02 0.503E+01 0.325E+02   -.722E+01 0.651E+01 0.265E+01   0.198E-03 -.190E-03 0.169E-02
   0.121E+03 0.147E+03 -.137E+03   -.128E+03 -.157E+03 0.149E+03   0.622E+01 0.108E+02 -.123E+02   0.210E-03 0.871E-04 0.906E-03
   -.130E+03 -.131E+03 -.197E+03   0.139E+03 0.143E+03 0.203E+03   -.108E+02 -.140E+02 -.263E+01   0.286E-03 0.538E-03 -.182E-02
   0.118E+03 -.112E+03 -.216E+03   -.124E+03 0.123E+03 0.228E+03   0.591E+01 -.107E+02 -.120E+02   -.176E-03 0.194E-03 -.128E-02
   0.118E+03 -.113E+03 0.216E+03   -.124E+03 0.123E+03 -.229E+03   0.548E+01 -.999E+01 0.132E+02   -.463E-03 0.221E-03 0.223E-03
   -.107E+03 -.104E+03 0.226E+03   0.109E+03 0.108E+03 -.242E+03   0.452E+00 -.134E+01 0.178E+02   0.589E-03 0.779E-03 0.544E-03
   0.118E+03 0.153E+03 0.135E+03   -.124E+03 -.163E+03 -.148E+03   0.517E+01 0.103E+02 0.121E+02   0.268E-03 0.120E-03 0.755E-04
   -.458E+02 -.280E+02 0.813E+02   0.467E+02 0.279E+02 -.937E+02   0.220E+01 -.404E+01 0.138E+02   0.633E-04 0.128E-03 -.270E-03
   0.854E+02 0.720E+02 -.364E+02   -.940E+02 -.704E+02 0.501E+02   0.576E+01 -.404E+01 -.156E+02   0.176E-03 -.652E-04 0.155E-02
   -.689E+02 0.955E+02 -.824E+02   0.825E+02 -.987E+02 0.945E+02   -.133E+02 0.326E+01 -.116E+02   -.220E-03 0.506E-04 0.965E-03
   0.568E+02 -.848E+02 -.190E+03   -.648E+02 0.837E+02 0.205E+03   0.523E+01 0.351E+01 -.169E+02   -.175E-03 0.183E-03 -.121E-02
   -.100E+03 -.865E+02 -.198E+03   0.116E+03 0.927E+02 0.205E+03   -.167E+02 -.829E+01 -.357E+01   0.303E-03 0.194E-03 -.924E-03
   -.846E+02 -.801E+02 0.207E+03   0.980E+02 0.832E+02 -.221E+03   -.129E+02 -.306E+01 0.134E+02   0.215E-03 0.122E-03 0.861E-03
   0.704E+02 -.951E+02 0.184E+03   -.836E+02 0.973E+02 -.197E+03   0.125E+02 -.178E+01 0.130E+02   -.190E-03 0.434E-03 0.111E-02
   -.652E+02 0.989E+02 0.820E+02   0.785E+02 -.102E+03 -.942E+02   -.129E+02 0.357E+01 0.116E+02   -.218E-03 0.522E-05 -.631E-03
   0.103E+03 0.750E+02 0.225E+02   -.117E+03 -.771E+02 -.342E+02   0.130E+02 0.184E+01 0.112E+02   0.278E-03 0.194E-03 -.915E-03
   0.683E+01 0.253E+03 0.195E+02   -.624E+01 -.271E+03 -.141E+02   -.997E+00 0.178E+02 -.525E+01   -.376E-03 -.500E-03 0.682E-03
   -.207E+02 -.243E+03 -.102E+03   0.148E+02 0.259E+03 0.108E+03   0.980E+01 -.141E+02 -.534E+01   0.603E-05 -.273E-03 -.371E-03
   -.326E+02 -.251E+03 0.101E+03   0.328E+02 0.270E+03 -.108E+03   -.409E+00 -.187E+02 0.647E+01   -.713E-04 -.140E-03 0.873E-03
   0.126E+02 0.255E+03 -.197E+02   -.131E+02 -.274E+03 0.144E+02   0.853E+00 0.188E+02 0.508E+01   -.138E-03 -.127E-03 -.863E-03
   0.108E+03 0.120E+03 0.207E+03   -.116E+03 -.129E+03 -.219E+03   0.820E+01 0.735E+01 0.126E+02   0.226E-03 -.578E-03 0.485E-03
   -.101E+03 0.116E+03 0.194E+03   0.109E+03 -.125E+03 -.207E+03   -.716E+01 0.100E+02 0.124E+02   0.170E-03 0.116E-03 0.461E-03
   0.976E+02 -.106E+03 0.104E+03   -.106E+03 0.114E+03 -.116E+03   0.886E+01 -.710E+01 0.116E+02   -.200E-03 -.516E-03 -.190E-03
   -.200E+03 -.160E+03 -.802E+02   0.215E+03 0.166E+03 0.777E+02   -.177E+02 -.293E+01 0.508E+00   0.115E-03 -.202E-03 -.598E-03
   -.153E+03 -.153E+03 0.614E+02   0.157E+03 0.167E+03 -.582E+02   -.657E+00 -.166E+02 -.675E+00   0.415E-04 -.195E-03 0.158E-02
   0.967E+02 -.113E+03 -.106E+03   -.105E+03 0.122E+03 0.118E+03   0.767E+01 -.825E+01 -.117E+02   -.170E-04 -.218E-03 0.789E-03
   -.822E+02 0.128E+03 -.188E+03   0.836E+02 -.141E+03 0.198E+03   0.218E+01 0.154E+02 -.936E+01   -.116E-03 -.840E-05 -.105E-02
   0.108E+03 0.124E+03 -.211E+03   -.115E+03 -.133E+03 0.223E+03   0.692E+01 0.862E+01 -.122E+02   0.244E-03 -.127E-03 -.999E-03
   0.254E+03 0.154E+02 0.566E+02   -.274E+03 -.155E+02 -.572E+02   0.189E+02 0.450E-01 0.779E+00   0.310E-04 -.891E-04 0.722E-03
   -.247E+03 -.653E+01 0.656E+02   0.263E+03 0.137E+01 -.627E+02   -.154E+02 0.836E+01 -.533E+01   0.427E-03 0.866E-04 0.129E-02
   0.253E+03 0.208E+02 -.597E+02   -.272E+03 -.206E+02 0.600E+02   0.182E+02 -.420E+00 -.406E+00   0.150E-03 -.176E-04 -.597E-03
   -.247E+03 -.457E+02 -.875E+02   0.264E+03 0.516E+02 0.921E+02   -.155E+02 -.938E+01 -.752E+01   0.198E-04 0.765E-04 -.100E-02
   -.495E+02 -.158E+02 -.229E+02   0.502E+02 0.162E+02 0.260E+02   -.693E-01 0.935E-01 -.142E+01   0.927E-04 -.129E-04 0.866E-03
   0.583E+02 0.560E+02 -.259E+02   -.567E+02 -.570E+02 0.258E+02   -.130E+01 -.158E+00 0.431E+00   0.153E-03 0.174E-03 0.649E-03
   -.706E+02 -.261E+02 -.706E+02   0.722E+02 0.276E+02 0.717E+02   -.418E+00 -.777E+00 -.396E+00   -.522E-04 0.742E-04 -.145E-02
   0.692E+02 -.229E+02 -.700E+02   -.682E+02 0.225E+02 0.692E+02   -.123E+01 0.636E+00 0.816E+00   -.359E-03 0.303E-04 -.881E-03
   0.685E+02 -.219E+02 0.697E+02   -.648E+02 0.226E+02 -.689E+02   -.299E+01 -.140E+00 -.769E+00   -.699E-03 0.200E-05 -.788E-04
   0.518E+02 0.613E+02 0.263E+02   -.476E+02 -.617E+02 -.247E+02   -.282E+01 -.759E+00 -.127E+01   0.345E-03 0.193E-03 0.237E-03
   0.110E+02 0.849E+02 0.641E+02   -.968E+01 -.812E+02 -.639E+02   -.960E+00 -.313E+01 -.344E+00   0.472E-05 -.541E-03 0.732E-03
   -.377E+01 0.863E+02 0.527E+02   0.344E+01 -.856E+02 -.528E+02   0.365E+00 -.109E+01 -.265E+00   -.248E-03 -.863E-04 0.391E-03
   -.459E+01 -.853E+02 -.111E+02   0.328E+01 0.826E+02 0.118E+02   0.714E+00 0.250E+01 -.598E+00   -.211E-03 -.251E-03 -.376E-03
   -.389E+02 -.690E+02 0.526E+02   0.383E+02 0.695E+02 -.542E+02   0.944E+00 0.213E-01 0.400E+00   0.189E-04 0.138E-04 0.726E-03
   -.299E+01 -.893E+02 0.104E+02   0.382E+01 0.875E+02 -.111E+02   -.509E+00 0.177E+01 0.574E+00   -.738E-04 -.530E-04 0.645E-03
   -.337E+00 0.875E+02 -.514E+02   -.161E+01 -.890E+02 0.519E+02   0.142E+01 0.419E+00 -.546E-01   -.238E-03 -.147E-03 -.625E-03
   0.125E+02 0.855E+02 -.655E+02   -.123E+02 -.846E+02 0.657E+02   -.161E+00 -.133E+01 0.205E+00   0.880E-04 -.102E-03 -.741E-03
   0.615E+02 0.215E+02 -.346E+02   -.609E+02 -.216E+02 0.327E+02   -.813E+00 -.190E+00 0.179E+01   -.226E-06 -.303E-04 0.551E-03
   0.600E+02 -.371E+01 -.107E+03   -.569E+02 0.536E+01 0.105E+03   -.232E+01 -.943E+00 0.232E+01   0.162E-03 0.884E-04 -.697E-03
   -.588E+02 -.160E+02 0.999E+02   0.583E+02 0.131E+02 -.997E+02   0.805E+00 0.211E+01 -.720E+00   0.228E-03 0.383E-03 0.765E-03
   0.600E+02 -.664E+01 0.104E+03   -.599E+02 0.655E+01 -.104E+03   -.560E+00 0.214E+00 -.121E+01   0.717E-04 -.374E-04 0.390E-03
   -.483E+02 -.352E+02 -.338E+02   0.488E+02 0.382E+02 0.358E+02   -.245E+00 -.140E+01 -.671E+00   0.176E-03 0.330E-04 -.510E-03
   0.613E+02 0.252E+02 0.331E+02   -.610E+02 -.252E+02 -.315E+02   -.571E+00 -.107E+00 -.157E+01   -.495E-04 -.850E-04 -.227E-03
 -----------------------------------------------------------------------------------------------
   0.247E+02 0.167E+02 0.425E+01   -.135E-12 0.142E-12 0.497E-12   -.247E+02 -.167E+02 -.427E+01   0.684E-03 0.178E-02 0.421E-02
 
 
 POSITION                                       TOTAL-FORCE (eV/Angst)
 -----------------------------------------------------------------------------------
      1.54003     -0.46520     15.41910         0.443262      0.269893     -0.249780
      1.54003      0.46520      6.17060        -0.186729      0.437155     -0.718636
      5.29573     -3.41776      8.12758         1.314807     -0.259753      1.754955
      3.10058     -1.20775      0.96369        -0.207074      0.546954     -1.606086
      3.10058      1.20775     10.21219         0.428705      0.156058      0.653149
      3.52448     -2.74728      6.08308         0.418876      0.319174      0.304902
      3.48026     -2.34893      3.41992         0.028422      0.546081     -0.440301
      0.00274      0.00252      2.98542        -0.728898     -0.407094     -0.417072
      0.00274     -0.00252     12.23392        -0.482265      0.374815     -0.188763
      0.00274     -0.00252     15.51158        -4.521003      1.124725      0.298742
      0.00274      0.00252      6.26308        -4.709199     -1.099052      0.375419
      1.98180      0.55219      4.62425         1.281945     -0.062034     -4.565934
     11.69520      0.55219      4.62425        -0.836437      0.410324     -0.602799
      1.98180     -0.55219     13.87275         1.001429     -0.331476     -4.291065
     11.69520     -0.55219     13.87275        -0.430992     -0.102522     -0.097499
      8.55086     -4.39354      2.39166         0.124065      0.371635      0.035668
      5.12614     -4.39354      2.39166        -0.676256      0.706101      0.932879
      8.55086      4.39354     11.64016         0.149409     -0.566991     -0.059796
      5.12614      4.39354     11.64016        -0.110259     -0.086954      0.340211
      5.12614      4.39354     16.10534        -0.314005     -0.445662     -0.156363
      8.55086      4.39354     16.10534         0.490722     -3.933340      1.970698
      5.12614     -4.39354      6.85684        -1.737796     -1.231273     -4.368890
      8.55086     -4.39354      6.85684         0.585105      3.834341      1.897905
      2.46733     -0.60892      2.31767        -0.907506      0.177693      4.384385
     11.20967     -0.60892      2.31767        -0.026058      0.005344      0.412495
      2.46733      0.60892     11.56617        -1.897201     -1.795069      3.512255
     11.20967      0.60892     11.56617        -0.102201      0.038147      0.462858
     11.20967      0.60892     16.17933        -0.348149      0.344248      0.010447
      2.46733      0.60892     16.17933         2.569739      2.847566      2.296118
     11.20967     -0.60892      6.93083        -0.382140     -0.191839     -0.305122
      2.46733     -0.60892      6.93083         3.114734     -4.150328      1.363203
      8.84218      4.18805      0.21457        -2.899802     -2.386552     -1.788473
      4.83482      4.18805      0.21457         0.307906      0.080736      0.532752
      8.84218     -4.18805      9.46307        -2.807051      2.397009     -2.001797
      4.83482     -4.18805      9.46307        -1.440933     -2.079621      3.384592
      4.83482     -4.18805     18.28243         0.539959      0.127832      0.070794
      8.84218     -4.18805     18.28243        -0.638591      0.454197      0.041284
      4.83482      4.18805      9.03393         0.395768      0.108398     -0.525364
      8.84218      4.18805      9.03393        -0.441919     -0.263118     -0.491727
      6.83850      2.98029     17.51296        -0.407104     -0.497260      0.136919
      6.83850     -2.98029      8.26446         3.989157      1.208760      0.091457
      6.83850     -2.98029      0.98404        -0.200175      0.307793     -0.025965
      6.83850      2.98029     10.23254         0.301459     -0.230813     -0.284866
      9.29215      2.10789     17.16707         0.105373     -0.706883     -0.152832
      4.38485      2.10789     17.16707         0.463923      0.208532     -0.205987
      9.29215     -2.10789      7.91857         0.331700      0.728490     -0.281628
      4.38485     -2.10789      7.91857        -2.725350      3.134307     -2.007120
      4.38485     -2.10789      1.32993         3.319207     -2.689782      2.541904
      9.29215     -2.10789      1.32993        -0.152552      0.349004      0.359998
      4.38485      2.10789     10.57843         3.589008      2.699484      0.841215
      9.29215      2.10789     10.57843        -0.447672     -0.136753      0.246615
     10.12645      0.00000      0.00000        -0.483629     -0.053334      0.213312
      3.55055      0.00000      0.00000         1.197912      3.192501     -2.450431
     10.12645      0.00000      9.24850        -0.639428     -0.213937     -0.179633
      3.55055      0.00000      9.24850         1.095723     -3.510082     -2.858345
      1.54003      0.46520      3.07790         0.555994      0.505240      1.637720
     12.13697      0.46520      3.07790         0.335327     -1.164334      0.321834
      1.54003     -0.46520     12.32640         1.069901      0.671685      0.610053
     12.13697     -0.46520     12.32640        -0.182292      0.201973     -0.027000
     12.13697     -0.46520     15.41910         0.714891      0.546013     -0.050374
     12.13697      0.46520      6.17060         1.327935     -1.135050      0.293536
      8.38127      3.41776     17.37608         0.337246      0.499919     -0.070346
      5.29573      3.41776     17.37608         0.033812     -0.346946     -0.359579
      8.38127     -3.41776      8.12758        -0.597048     -0.180633      0.091955
      5.29573     -3.41776      1.12092         0.481322      0.508607     -1.220356
      8.38127     -3.41776      1.12092         0.322928     -0.090349     -0.199327
      5.29573      3.41776     10.36942        -0.514892     -0.972688      0.487272
      8.38127      3.41776     10.36942         0.027669     -0.382478      0.459384
     10.57642     -1.20775      0.96369        -0.204153     -0.247343     -0.132230
     10.57642      1.20775     10.21219         0.772843      0.694667      0.023964
      3.10058      1.20775     17.53331         0.281511     -0.734675     -0.551445
     10.57642      1.20775     17.53331        -0.419782      0.115206     -0.740702
      3.10058     -1.20775      8.28481         0.214632      1.569612      1.308515
     10.57642     -1.20775      8.28481        -0.257786     -0.134200     -0.027733
 -----------------------------------------------------------------------------------
    total drift:                               -0.012525     -0.003722     -0.012893


--------------------------------------------------------------------------------------------------------



  FREE ENERGIE OF THE ION-ELECTRON SYSTEM (eV)
  ---------------------------------------------------
  free  energy   TOTEN  =      -557.10852146 eV

  energy  without entropy=     -556.58122615  energy(sigma->0) =     -556.84487380
 


--------------------------------------------------------------------------------------------------------


    POTLOK:  cpu time    0.3629: real time    0.3639


--------------------------------------------------------------------------------------------------------


     LOOP+:  cpu time  151.1810: real time  151.5820
    4ORBIT:  cpu time    0.0000: real time    0.0000

 total amount of memory used by VASP MPI-rank0    89410. kBytes
=======================================================================

   base      :      30000. kBytes
   nonlr-proj:       8823. kBytes
   fftplans  :      13338. kBytes
   grid      :      27645. kBytes
   one-center:        108. kBytes
   wavefun   :       9496. kBytes
 
  
  
 General timing and accounting informations for this job:
 ========================================================
  
                  Total CPU time used (sec):      154.235
                            User time (sec):      153.791
                          System time (sec):        0.444
                         Elapsed time (sec):      154.883
  
                   Maximum memory used (kb):      160124.
                   Average memory used (kb):           0.
  
                          Minor page faults:        35932
                          Major page faults:          165
                 Voluntary context switches:          786
