 vasp.5.4.4.18Apr17-6-g9f103f2a35 (build Dec 21 2018 14:18:36) complex          
  
 executed on             LinuxIFC date 2022.04.06  10:19:17
 running on   12 total cores
 distrk:  each k-point on   12 cores,    1 groups
 distr:  one band on NCORES_PER_BAND=  12 cores,    1 groups


--------------------------------------------------------------------------------------------------------


 INCAR:
 POTCAR:  PAW_PBE Al 04Jan2001                    
 POTCAR:   PAW_PBE Cu 22Jun2005                   
 POTCAR:   PAW_PBE O 08Apr2002                    
 POTCAR:   PAW_PBE Si 05Jan2001                   

 ----------------------------------------------------------------------------- 
|                                                                             |
|           W    W    AA    RRRRR   N    N  II  N    N   GGGG   !!!           |
|           W    W   A  A   R    R  NN   N  II  NN   N  G    G  !!!           |
|           W    W  A    A  R    R  N N  N  II  N N  N  G       !!!           |
|           W WW W  AAAAAA  RRRRR   N  N N  II  N  N N  G  GGG   !            |
|           WW  WW  A    A  R   R   N   NN  II  N   NN  G    G                |
|           W    W  A    A  R    R  N    N  II  N    N   GGGG   !!!           |
|                                                                             |
|      For optimal performance we recommend to set                            |
|        NCORE= 4 - approx SQRT( number of cores)                             |
|      NCORE specifies how many cores store one orbital (NPAR=cpu/NCORE).     |
|      This setting can  greatly improve the performance of VASP for DFT.     |
|      The default,   NCORE=1            might be grossly inefficient         |
|      on modern multi-core architectures or massively parallel machines.     |
|      Do your own testing !!!!                                               |
|      Unfortunately you need to use the default for GW and RPA calculations. |
|      (for HF NCORE is supported but not extensively tested yet)             |
|                                                                             |
 ----------------------------------------------------------------------------- 

 POTCAR:  PAW_PBE Al 04Jan2001                    
   VRHFIN =Al: s2p1                                                             
   LEXCH  = PE                                                                  
   EATOM  =    53.5387 eV,    3.9350 Ry                                         
                                                                                
   TITEL  = PAW_PBE Al 04Jan2001                                                
   LULTRA =        F    use ultrasoft PP ?                                      
   IUNSCR =        1    unscreen: 0-lin 1-nonlin 2-no                           
   RPACOR =    1.500    partial core radius                                     
   POMASS =   26.982; ZVAL   =    3.000    mass and valenz                      
   RCORE  =    1.900    outmost cutoff radius                                   
   RWIGS  =    2.650; RWIGS  =    1.402    wigner-seitz radius (au A)           
   ENMAX  =  240.300; ENMIN  =  180.225 eV                                      
   ICORE  =        2    local potential                                         
   LCOR   =        T    correct aug charges                                     
   LPAW   =        T    paw PP                                                  
   EAUG   =  291.052                                                            
   DEXC   =    -.041                                                            
   RMAX   =    2.974    core radius for proj-oper                               
   RAUG   =    1.300    factor for augmentation sphere                          
   RDEP   =    1.966    radius for radial grids                                 
   QCUT   =   -4.203; QGAM   =    8.405    optimization parameters              
                                                                                
   Description                                                                  
     l     E      TYP  RCUT    TYP  RCUT                                        
     0   .000     23  1.900                                                     
     0   .000     23  1.900                                                     
     1   .000     23  1.900                                                     
     1  1.000     23  1.900                                                     
     2   .000      7  1.900                                                     
  local pseudopotential read in
  partial core-charges read in
  atomic valenz-charges read in
  non local Contribution for L=           0  read in
    real space projection operators read in
  non local Contribution for L=           0  read in
    real space projection operators read in
  non local Contribution for L=           1  read in
    real space projection operators read in
  non local Contribution for L=           1  read in
    real space projection operators read in
    PAW grid and wavefunctions read in
 
   number of l-projection  operators is LMAX  =           4
   number of lm-projection operators is LMMAX =           8
 
 POTCAR:   PAW_PBE Cu 22Jun2005                   
   VRHFIN =Cu: d10 p1                                                           
   LEXCH  = PE                                                                  
   EATOM  =  1390.9808 eV,  102.2342 Ry                                         
                                                                                
   TITEL  = PAW_PBE Cu 22Jun2005                                                
   LULTRA =        F    use ultrasoft PP ?                                      
   IUNSCR =        1    unscreen: 0-lin 1-nonlin 2-no                           
   RPACOR =    2.000    partial core radius                                     
   POMASS =   63.546; ZVAL   =   11.000    mass and valenz                      
   RCORE  =    2.300    outmost cutoff radius                                   
   RWIGS  =    2.200; RWIGS  =    1.164    wigner-seitz radius (au A)           
   ENMAX  =  295.446; ENMIN  =  221.585 eV                                      
   ICORE  =        3    local potential                                         
   LCOR   =        T    correct aug charges                                     
   LPAW   =        T    paw PP                                                  
   EAUG   =  586.980                                                            
   DEXC   =    0.000                                                            
   RMAX   =    2.344    core radius for proj-oper                               
   RAUG   =    1.300    factor for augmentation sphere                          
   RDEP   =    2.302    radius for radial grids                                 
   RDEPT  =    1.771    core radius for aug-charge                              
                                                                                
   Atomic configuration                                                         
    9 entries                                                                   
     n  l   j            E        occ.                                          
     1  0  0.50     -8850.2468   2.0000                                         
     2  0  0.50     -1062.3498   2.0000                                         
     2  1  1.50      -916.8226   6.0000                                         
     3  0  0.50      -114.6929   2.0000                                         
     3  1  1.50       -72.1325   6.0000                                         
     3  2  2.50        -5.0394  10.0000                                         
     4  0  0.50        -4.6097   1.0000                                         
     4  1  0.50        -4.0817   0.0000                                         
     4  3  2.50        -1.3606   0.0000                                         
   Description                                                                  
     l       E           TYP  RCUT    TYP  RCUT                                 
     2     -5.0393973     23  2.200                                             
     2     10.8846608     23  2.200                                             
     0     -4.6097109     23  2.200                                             
     0      8.2520465     23  2.200                                             
     1     -2.7211652     23  2.200                                             
     1     21.7055443     23  2.200                                             
     3      2.7211652     23  2.300                                             
  local pseudopotential read in
  partial core-charges read in
  partial kinetic energy density read in
  atomic valenz-charges read in
  non local Contribution for L=           2  read in
    real space projection operators read in
  non local Contribution for L=           2  read in
    real space projection operators read in
  non local Contribution for L=           0  read in
    real space projection operators read in
  non local Contribution for L=           0  read in
    real space projection operators read in
  non local Contribution for L=           1  read in
    real space projection operators read in
  non local Contribution for L=           1  read in
    real space projection operators read in
    PAW grid and wavefunctions read in
 
   number of l-projection  operators is LMAX  =           6
   number of lm-projection operators is LMMAX =          18
 
 POTCAR:   PAW_PBE O 08Apr2002                    
   VRHFIN =O: s2p4                                                              
   LEXCH  = PE                                                                  
   EATOM  =   432.3788 eV,   31.7789 Ry                                         
                                                                                
   TITEL  = PAW_PBE O 08Apr2002                                                 
   LULTRA =        F    use ultrasoft PP ?                                      
   IUNSCR =        0    unscreen: 0-lin 1-nonlin 2-no                           
   RPACOR =     .000    partial core radius                                     
   POMASS =   16.000; ZVAL   =    6.000    mass and valenz                      
   RCORE  =    1.520    outmost cutoff radius                                   
   RWIGS  =    1.550; RWIGS  =     .820    wigner-seitz radius (au A)           
   ENMAX  =  400.000; ENMIN  =  300.000 eV                                      
   ICORE  =        2    local potential                                         
   LCOR   =        T    correct aug charges                                     
   LPAW   =        T    paw PP                                                  
   EAUG   =  605.392                                                            
   DEXC   =     .000                                                            
   RMAX   =    2.264    core radius for proj-oper                               
   RAUG   =    1.300    factor for augmentation sphere                          
   RDEP   =    1.550    radius for radial grids                                 
   QCUT   =   -5.520; QGAM   =   11.041    optimization parameters              
                                                                                
   Description                                                                  
     l     E      TYP  RCUT    TYP  RCUT                                        
     0   .000     23  1.200                                                     
     0  -.700     23  1.200                                                     
     1   .000     23  1.520                                                     
     1   .600     23  1.520                                                     
     2   .000      7  1.500                                                     
  local pseudopotential read in
  atomic valenz-charges read in
  non local Contribution for L=           0  read in
    real space projection operators read in
  non local Contribution for L=           0  read in
    real space projection operators read in
  non local Contribution for L=           1  read in
    real space projection operators read in
  non local Contribution for L=           1  read in
    real space projection operators read in
    PAW grid and wavefunctions read in
 
   number of l-projection  operators is LMAX  =           4
   number of lm-projection operators is LMMAX =           8
 
 POTCAR:   PAW_PBE Si 05Jan2001                   
   VRHFIN =Si: s2p2                                                             
   LEXCH  = PE                                                                  
   EATOM  =   103.0669 eV,    7.5752 Ry                                         
                                                                                
   TITEL  = PAW_PBE Si 05Jan2001                                                
   LULTRA =        F    use ultrasoft PP ?                                      
   IUNSCR =        1    unscreen: 0-lin 1-nonlin 2-no                           
   RPACOR =    1.500    partial core radius                                     
   POMASS =   28.085; ZVAL   =    4.000    mass and valenz                      
   RCORE  =    1.900    outmost cutoff radius                                   
   RWIGS  =    2.480; RWIGS  =    1.312    wigner-seitz radius (au A)           
   ENMAX  =  245.345; ENMIN  =  184.009 eV                                      
   ICORE  =        2    local potential                                         
   LCOR   =        T    correct aug charges                                     
   LPAW   =        T    paw PP                                                  
   EAUG   =  322.069                                                            
   DEXC   =    -.007                                                            
   RMAX   =    2.944    core radius for proj-oper                               
   RAUG   =    1.300    factor for augmentation sphere                          
   RDEP   =    1.993    radius for radial grids                                 
   QCUT   =   -4.246; QGAM   =    8.493    optimization parameters              
                                                                                
   Description                                                                  
     l     E      TYP  RCUT    TYP  RCUT                                        
     0   .000     23  1.900                                                     
     0   .000     23  1.900                                                     
     1   .000     23  1.900                                                     
     1   .000     23  1.900                                                     
     2   .000      7  1.900                                                     
  local pseudopotential read in
  partial core-charges read in
  atomic valenz-charges read in
  non local Contribution for L=           0  read in
    real space projection operators read in
  non local Contribution for L=           0  read in
    real space projection operators read in
  non local Contribution for L=           1  read in
    real space projection operators read in
  non local Contribution for L=           1  read in
    real space projection operators read in
    PAW grid and wavefunctions read in
 
   number of l-projection  operators is LMAX  =           4
   number of lm-projection operators is LMMAX =           8
 
 Optimization of the real space projectors (new method)

 maximal supplied QI-value         = 19.84
 optimisation between [QCUT,QGAM] = [ 10.12, 20.44] = [ 28.68,116.96] Ry 
 Optimized for a Real-space Cutoff    1.26 Angstroem

   l    n(q)    QCUT    max X(q) W(low)/X(q) W(high)/X(q)  e(spline) 
   0      8    10.119    13.410    0.28E-04    0.17E-04    0.51E-08
   0      8    10.119   140.052    0.10E-03    0.16E-03    0.42E-07
   1      7    10.119     9.624    0.38E-04    0.42E-05    0.15E-07
   1      7    10.119    53.353    0.23E-03    0.17E-03    0.13E-06
 Optimization of the real space projectors (new method)

 maximal supplied QI-value         = 16.25
 optimisation between [QCUT,QGAM] = [ 10.24, 20.48] = [ 29.35,117.42] Ry 
 Optimized for a Real-space Cutoff    1.55 Angstroem

   l    n(q)    QCUT    max X(q) W(low)/X(q) W(high)/X(q)  e(spline) 
   2      9    10.239     4.610    0.85E-04    0.29E-03    0.14E-06
   2      9    10.239     8.522    0.15E-03    0.50E-03    0.27E-06
   0     10    10.239    51.609    0.45E-04    0.99E-04    0.10E-06
   0     10    10.239    27.747    0.40E-04    0.93E-04    0.97E-07
   1      9    10.239    20.408    0.15E-03    0.78E-05    0.15E-06
   1      9    10.239    13.425    0.13E-03    0.71E-05    0.14E-06
 Optimization of the real space projectors (new method)

 maximal supplied QI-value         = 24.76
 optimisation between [QCUT,QGAM] = [ 10.15, 20.30] = [ 28.85,115.39] Ry 
 Optimized for a Real-space Cutoff    1.51 Angstroem

   l    n(q)    QCUT    max X(q) W(low)/X(q) W(high)/X(q)  e(spline) 
   0      9    10.150     4.192    0.32E-04    0.13E-04    0.13E-06
   0      9    10.150     8.473    0.18E-03    0.20E-03    0.43E-06
   1      9    10.150     2.474    0.32E-04    0.33E-04    0.64E-07
   1      9    10.150     3.912    0.13E-03    0.16E-03    0.33E-06
 Optimization of the real space projectors (new method)

 maximal supplied QI-value         = 19.84
 optimisation between [QCUT,QGAM] = [ 10.12, 20.44] = [ 28.68,116.96] Ry 
 Optimized for a Real-space Cutoff    1.38 Angstroem

   l    n(q)    QCUT    max X(q) W(low)/X(q) W(high)/X(q)  e(spline) 
   0      8    10.119     8.708    0.16E-04    0.67E-05    0.60E-08
   0      8    10.119   106.241    0.56E-04    0.11E-03    0.54E-07
   1      8    10.119     5.901    0.16E-04    0.16E-05    0.22E-07
   1      8    10.119    73.241    0.22E-03    0.17E-03    0.18E-06
PAW_PBE Al 04Jan2001                    :
 energy of atom  1       EATOM=  -53.5387
 kinetic energy error for atom=    0.0005 (will be added to EATOM!!)
 PAW_PBE Cu 22Jun2005                   :
 energy of atom  2       EATOM=-1390.9808
 kinetic energy error for atom=    0.0232 (will be added to EATOM!!)
 PAW_PBE O 08Apr2002                    :
 energy of atom  3       EATOM= -432.3788
 kinetic energy error for atom=    0.1156 (will be added to EATOM!!)
 PAW_PBE Si 05Jan2001                   :
 energy of atom  4       EATOM= -103.0669
 kinetic energy error for atom=    0.0012 (will be added to EATOM!!)
 
 
 POSCAR: Al Cu O Si                              
  positions in direct lattice
  velocities in cartesian coordinates
  No initial velocities read in
 exchange correlation table for  LEXCH =        8
   RHO(1)=    0.500       N(1)  =     2000
   RHO(2)=  100.500       N(2)  =     4000
 


--------------------------------------------------------------------------------------------------------


 ion  position               nearest neighbor table
   1  0.418  0.329  0.625-  75 1.61  15 1.61  39 1.61  63 1.61 117 3.02 115 3.17 132 3.17 143 3.20

   2  0.671  0.089  0.625-  76 1.61  16 1.61  40 1.61  64 1.61 116 3.02 117 3.17 130 3.17 141 3.20

   3  0.329  0.418  0.125-  72 1.61  18 1.61  42 1.61  62 1.61 111 3.02 109 3.17 135 3.17 146 3.20

   4  0.418  0.329  0.875-  78 1.61  24 1.61  48 1.61  66 1.61 125 3.02 123 3.17 132 3.17 146 3.20

   5  0.329  0.418  0.375-  81 1.61  33 1.61  57 1.61  71 1.61 122 3.02 120 3.17 135 3.17 143 3.20

   6  0.004  0.250  0.250-  91 1.61  53 1.61  38 1.61  85 1.61 135 3.05 122 3.17 111 3.17 134 3.18

   7  0.250  0.004  0.750-  94 1.61  56 1.61  47 1.61  89 1.61 132 3.05 125 3.17 117 3.17 131 3.18

   8  0.000  0.248  0.500- 106 1.61  99 1.61  22 1.61  29 1.61 143 3.11 141 3.11 116 3.20 122 3.20

   9  0.248  0.000  0.500- 105 1.61 101 1.61  28 1.61  23 1.61 143 3.11 142 3.11 121 3.20 117 3.20

  10  0.586  0.469  0.424- 108 1.76  81 2.24 120 2.76
  11  0.859  0.559  0.348- 108 1.91  58 2.03 126 2.56
  12  0.661  0.695  0.061- 109 1.61 140 1.61
  13  0.305  0.965  0.061- 110 1.61 138 1.61
  14  0.035  0.339  0.061- 111 1.61 139 1.61
  15  0.339  0.305  0.561-   1 1.61 143 1.61
  16  0.695  0.035  0.561-   2 1.61 141 1.61
  17  0.965  0.661  0.561- 112 1.61 142 1.61
  18  0.305  0.339  0.061-   3 1.61 146 1.61
  19  0.035  0.695  0.061- 113 1.61 144 1.61
  20  0.661  0.965  0.061- 114 1.61 145 1.61
  21  0.695  0.661  0.561- 115 1.61 147 1.61
  22  0.965  0.305  0.561- 116 1.61   8 1.61
  23  0.339  0.035  0.561- 117 1.61   9 1.61
  24  0.339  0.305  0.939-   4 1.61 146 1.61
  25  0.695  0.035  0.939- 118 1.61 145 1.61
  26  0.965  0.661  0.939- 119 1.61 144 1.61
  27  0.661  0.695  0.439- 120 1.61 147 1.61
  28  0.305  0.965  0.439- 121 1.61   9 1.61
  29  0.035  0.339  0.439- 122 1.61   8 1.61
  30  0.695  0.661  0.939- 123 1.61 140 1.61
  31  0.965  0.305  0.939- 124 1.61 139 1.61
  32  0.339  0.035  0.939- 125 1.61 138 1.61
  33  0.305  0.339  0.439-   5 1.61 143 1.61
  34  0.035  0.695  0.439- 126 1.61 142 1.61
  35  0.661  0.965  0.439- 127 1.61 141 1.61
  36  0.668  0.691  0.187- 109 1.61 129 1.61
  37  0.309  0.977  0.187- 110 1.61 128 1.61
  38  0.023  0.332  0.187- 111 1.61   6 1.61
  39  0.332  0.309  0.687-   1 1.61 132 1.61
  40  0.691  0.023  0.687-   2 1.61 130 1.61
  41  0.977  0.668  0.687- 112 1.61 131 1.61
  42  0.309  0.332  0.187-   3 1.61 135 1.61
  43  0.023  0.691  0.187- 113 1.61 133 1.61
  44  0.668  0.977  0.187- 114 1.61 134 1.61
  45  0.691  0.668  0.687- 115 1.61 137 1.61
  46  0.977  0.309  0.687- 116 1.61 136 1.61
  47  0.332  0.023  0.687- 117 1.61   7 1.61
  48  0.332  0.309  0.813-   4 1.61 132 1.61
  49  0.691  0.023  0.813- 118 1.61 130 1.61
  50  0.977  0.668  0.813- 119 1.61 131 1.61
  51  0.668  0.691  0.313- 120 1.61 129 1.61
  52  0.309  0.977  0.313- 121 1.61 128 1.61
  53  0.023  0.332  0.313- 122 1.61   6 1.61
  54  0.691  0.668  0.813- 123 1.61 137 1.61
  55  0.977  0.309  0.813- 124 1.61 136 1.61
  56  0.332  0.023  0.813- 125 1.61   7 1.61
  57  0.309  0.332  0.313-   5 1.61 135 1.61
  58  0.023  0.691  0.313- 126 1.61 133 1.61  11 2.03
  59  0.668  0.977  0.313- 127 1.61 134 1.61
  60  0.530  0.765  0.129- 114 1.61 109 1.61
  61  0.235  0.765  0.129- 113 1.61 110 1.61
  62  0.235  0.470  0.129-   3 1.61 111 1.61
  63  0.470  0.235  0.629- 117 1.61   1 1.61
  64  0.765  0.235  0.629- 116 1.61   2 1.61
  65  0.765  0.530  0.629- 115 1.61 112 1.61
  66  0.470  0.235  0.871- 125 1.61   4 1.61
  67  0.765  0.235  0.871- 124 1.61 118 1.61
  68  0.765  0.530  0.871- 123 1.61 119 1.61
  69  0.530  0.765  0.371- 127 1.61 120 1.61
  70  0.235  0.765  0.371- 126 1.61 121 1.61
  71  0.235  0.470  0.371-   5 1.61 122 1.61
  72  0.468  0.531  0.125-   3 1.61 109 1.61
  73  0.469  0.937  0.125- 114 1.61 110 1.61
  74  0.063  0.532  0.125- 113 1.61 111 1.61
  75  0.532  0.469  0.625- 115 1.61   1 1.61
  76  0.531  0.063  0.625- 117 1.61   2 1.61
  77  0.937  0.468  0.625- 116 1.61 112 1.61
  78  0.532  0.469  0.875- 123 1.61   4 1.61
  79  0.531  0.063  0.875- 125 1.61 118 1.61
  80  0.937  0.468  0.875- 124 1.61 119 1.61
  81  0.468  0.531  0.375-   5 1.61 120 1.61  10 2.24
  82  0.469  0.937  0.375- 127 1.61 121 1.61
  83  0.063  0.532  0.375- 126 1.61 122 1.61
  84  0.101  0.899  0.250- 128 1.61 133 1.61
  85  0.101  0.203  0.250- 135 1.61   6 1.61
  86  0.797  0.899  0.250- 129 1.61 134 1.61
  87  0.899  0.101  0.750- 130 1.61 136 1.61
  88  0.899  0.797  0.750- 137 1.61 131 1.61
  89  0.203  0.101  0.750- 132 1.61   7 1.61
  90  0.268  0.134  0.250- 135 1.61 128 1.61
  91  0.866  0.134  0.250-   6 1.61 134 1.61
  92  0.866  0.732  0.250- 129 1.61 133 1.61
  93  0.732  0.866  0.750- 137 1.61 130 1.61
  94  0.134  0.866  0.750-   7 1.61 131 1.61
  95  0.134  0.268  0.750- 132 1.61 136 1.61
  96  0.116  0.884  0.982- 138 1.61 144 1.61
  97  0.116  0.232  0.982- 139 1.61 146 1.61
  98  0.768  0.884  0.982- 140 1.61 145 1.61
  99  0.884  0.116  0.482- 141 1.61   8 1.61
 100  0.884  0.768  0.482- 142 1.61 147 1.61
 101  0.232  0.116  0.482- 143 1.61   9 1.61
 102  0.884  0.116  0.018- 145 1.61 139 1.61
 103  0.884  0.768  0.018- 144 1.61 140 1.61
 104  0.232  0.116  0.018- 146 1.61 138 1.61
 105  0.116  0.884  0.518-   9 1.61 142 1.61
 106  0.116  0.232  0.518-   8 1.61 143 1.61
 107  0.768  0.884  0.518- 147 1.61 141 1.61
 108  0.716  0.462  0.399-  10 1.76  11 1.91
 109  0.582  0.671  0.125-  72 1.61  12 1.61  36 1.61  60 1.61 114 3.02   3 3.17
 110  0.329  0.911  0.125-  73 1.61  13 1.61  37 1.61  61 1.61 113 3.02
 111  0.089  0.418  0.125-  74 1.61  14 1.61  38 1.61  62 1.61   3 3.02   6 3.17
 112  0.911  0.582  0.625-  77 1.61  17 1.61  41 1.61  65 1.61 115 3.02
 113  0.089  0.671  0.125-  74 1.61  19 1.61  43 1.61  61 1.61 110 3.02
 114  0.582  0.911  0.125-  73 1.61  20 1.61  44 1.61  60 1.61 109 3.02
 115  0.671  0.582  0.625-  75 1.61  21 1.61  45 1.61  65 1.61 112 3.02   1 3.17
 116  0.911  0.329  0.625-  77 1.61  22 1.61  46 1.61  64 1.61   2 3.02   8 3.20
 117  0.418  0.089  0.625-  76 1.61  23 1.61  47 1.61  63 1.61   1 3.02   2 3.17   7 3.17   9 3.20

 118  0.671  0.089  0.875-  79 1.61  25 1.61  49 1.61  67 1.61 124 3.02
 119  0.911  0.582  0.875-  80 1.61  26 1.61  50 1.61  68 1.61 123 3.02
 120  0.582  0.671  0.375-  81 1.61  27 1.61  51 1.61  69 1.61  10 2.76 127 3.02   5 3.17
 121  0.329  0.911  0.375-  82 1.61  28 1.61  52 1.61  70 1.61 126 3.02   9 3.20
 122  0.089  0.418  0.375-  83 1.61  29 1.61  53 1.61  71 1.61   5 3.02   6 3.17   8 3.20
 123  0.671  0.582  0.875-  78 1.61  30 1.61  54 1.61  68 1.61 119 3.02   4 3.17
 124  0.911  0.329  0.875-  80 1.61  31 1.61  55 1.61  67 1.61 118 3.02
 125  0.418  0.089  0.875-  79 1.61  32 1.61  56 1.61  66 1.61   4 3.02   7 3.17
 126  0.089  0.671  0.375-  83 1.61  34 1.61  58 1.61  70 1.61  11 2.56 121 3.02
 127  0.582  0.911  0.375-  82 1.61  35 1.61  59 1.61  69 1.61 120 3.02
 128  0.247  0.996  0.250-  90 1.61  52 1.61  37 1.61  84 1.61 133 3.05
 129  0.750  0.753  0.250-  92 1.61  51 1.61  36 1.61  86 1.61 134 3.05
 130  0.753  0.004  0.750-  93 1.61  49 1.61  40 1.61  87 1.61 136 3.05   2 3.17
 131  0.996  0.750  0.750-  94 1.61  50 1.61  41 1.61  88 1.61 137 3.05   7 3.18
 132  0.250  0.247  0.750-  95 1.61  48 1.61  39 1.61  89 1.61   7 3.05   4 3.17   1 3.17
 133  0.004  0.753  0.250-  92 1.61  58 1.61  43 1.61  84 1.61 128 3.05
 134  0.750  0.996  0.250-  91 1.61  59 1.61  44 1.61  86 1.61 129 3.05   6 3.18
 135  0.247  0.250  0.250-  90 1.61  57 1.61  42 1.61  85 1.61   6 3.05   5 3.17   3 3.17
 136  0.996  0.247  0.750-  95 1.61  55 1.61  46 1.61  87 1.61 130 3.05
 137  0.753  0.750  0.750-  93 1.61  54 1.61  45 1.61  88 1.61 131 3.05
 138  0.248  0.000  0.000-  96 1.61 104 1.61  13 1.61  32 1.61 146 3.11 144 3.11
 139  0.000  0.248  0.000-  97 1.61 102 1.61  31 1.61  14 1.61 146 3.11 145 3.11
 140  0.752  0.752  0.000-  98 1.61 103 1.61  12 1.61  30 1.61 144 3.11 145 3.11
 141  0.752  0.000  0.500-  99 1.61 107 1.61  16 1.61  35 1.61 147 3.11   8 3.11   2 3.20
 142  0.000  0.752  0.500- 100 1.61 105 1.61  34 1.61  17 1.61 147 3.11   9 3.11
 143  0.248  0.248  0.500- 101 1.61 106 1.61  15 1.61  33 1.61   8 3.11   9 3.11   1 3.20   5 3.20

 144  0.000  0.752  0.000- 103 1.61  96 1.61  19 1.61  26 1.61 140 3.11 138 3.11
 145  0.752  0.000  0.000- 102 1.61  98 1.61  25 1.61  20 1.61 140 3.11 139 3.11
 146  0.248  0.248  0.000- 104 1.61  97 1.61  18 1.61  24 1.61 138 3.11 139 3.11   3 3.20   4 3.20

 147  0.752  0.752  0.500- 107 1.61 100 1.61  21 1.61  27 1.61 141 3.11 142 3.11
 

IMPORTANT INFORMATION: All symmetrisations will be switched off!
NOSYMM: (Re-)initialisation of all symmetry stuff for point group C_1.

 
 
 KPOINTS: Automatic                               

Automatic generation of k-mesh.
Space group operators:
 irot       det(A)        alpha          n_x          n_y          n_z        tau_x        tau_y        tau_z
    1     1.000000     0.000000     1.000000     0.000000     0.000000     0.000000     0.000000     0.000000
 
 Subroutine IBZKPT returns following result:
 ===========================================
 
 Found      1 irreducible k-points:
 
 Following reciprocal coordinates:
            Coordinates               Weight
  0.000000  0.000000  0.000000      1.000000
 
 Following cartesian coordinates:
            Coordinates               Weight
  0.000000  0.000000  0.000000      1.000000
 


--------------------------------------------------------------------------------------------------------




 Dimension of arrays:
   k-points           NKPTS =      1   k-points in BZ     NKDIM =      1   number of bands    NBANDS=    472
   number of dos      NEDOS =    301   number of ions     NIONS =    147
   non local maximal  LDIM  =      6   non local SUM 2l+1 LMDIM =     18
   total plane-waves  NPLWV = 987840
   max r-space proj   IRMAX =   5525   max aug-charges    IRDMAX=  13760
   dimension x,y,z NGX =    84 NGY =   84 NGZ =  140
   dimension x,y,z NGXF=   168 NGYF=  168 NGZF=  280
   support grid    NGXF=   168 NGYF=  168 NGZF=  280
   ions per type =               9   2  97  39
   NGX,Y,Z   is equivalent  to a cutoff of  11.13, 11.13, 11.20 a.u.
   NGXF,Y,Z  is equivalent  to a cutoff of  22.26, 22.26, 22.39 a.u.

 SYSTEM =  ZEOLITE_AFG_energy_DIMER                
 POSCAR =  Al Cu O Si                              

 Startparameter for this run:
   NWRITE =      2    write-flag & timer
   PREC   = accura    normal or accurate (medium, high low for compatibility)
   ISTART =      0    job   : 0-new  1-cont  2-samecut
   ICHARG =      2    charge: 1-file 2-atom 10-const
   ISPIN  =      1    spin polarized calculation?
   LNONCOLLINEAR =      F non collinear calculations
   LSORBIT =      F    spin-orbit coupling
   INIWAV =      1    electr: 0-lowe 1-rand  2-diag
   LASPH  =      F    aspherical Exc in radial PAW
   METAGGA=      F    non-selfconsistent MetaGGA calc.

 Electronic Relaxation 1
   ENCUT  =  400.0 eV  29.40 Ry    5.42 a.u.  20.46 20.46 33.90*2*pi/ulx,y,z
   ENINI  =  400.0     initial cutoff
   ENAUG  =  605.4 eV  augmentation charge cutoff
   NELM   =    100;   NELMIN=  5; NELMDL=-12     # of ELM steps 
   EDIFF  = 0.1E-05   stopping-criterion for ELM
   LREAL  =      T    real-space projection
   NLSPLINE    = F    spline interpolate recip. space projectors
   LCOMPAT=      F    compatible to vasp.4.4
   GGA_COMPAT  = T    GGA compatible to vasp.4.4-vasp.4.6
   LMAXPAW     = -100 max onsite density
   LMAXMIX     =    2 max onsite mixed and CHGCAR
   VOSKOWN=      0    Vosko Wilk Nusair interpolation
   ROPT   =   -0.00025  -0.00025  -0.00025  -0.00025
 Ionic relaxation
   EDIFFG = -.5E-02   stopping-criterion for IOM
   NSW    =      0    number of steps for IOM
   NBLOCK =      1;   KBLOCK =      1    inner block; outer block 
   IBRION =     -1    ionic relax: 0-MD 1-quasi-New 2-CG
   NFREE  =      2    steps in history (QN), initial steepest desc. (CG)
   ISIF   =      2    stress and relaxation
   IWAVPR =     10    prediction:  0-non 1-charg 2-wave 3-comb
   ISYM   =      0    0-nonsym 1-usesym 2-fastsym
   LCORR  =      T    Harris-Foulkes like correction to forces

   POTIM  = 0.0150    time-step for ionic-motion
   TEIN   =    0.0    initial temperature
   TEBEG  =    0.0;   TEEND  =   0.0 temperature during run
   SMASS  =  -3.00    Nose mass-parameter (am)
   estimated Nose-frequenzy (Omega)   =  0.10E-29 period in steps =****** mass=  -0.360E-26a.u.
   SCALEE = 1.0000    scale energy and forces
   NPACO  =    256;   APACO  = 16.0  distance and # of slots for P.C.
   PSTRESS=    0.0 pullay stress

  Mass of Ions in am
   POMASS =  26.98 63.55 16.00 28.09
  Ionic Valenz
   ZVAL   =   3.00 11.00  6.00  4.00
  Atomic Wigner-Seitz radii
   RWIGS  =  -1.00 -1.00 -1.00 -1.00
  virtual crystal weights 
   VCA    =   1.00  1.00  1.00  1.00
   NELECT =     787.0000    total number of electrons
   NUPDOWN=      -1.0000    fix difference up-down

 DOS related values:
   EMIN   =  10.00;   EMAX   =-10.00  energy-range for DOS
   EFERMI =   0.00
   ISMEAR =     0;   SIGMA  =   0.20  broadening in eV -4-tet -1-fermi 0-gaus

 Electronic relaxation 2 (details)
   IALGO  =     48    algorithm
   LDIAG  =      T    sub-space diagonalisation (order eigenvalues)
   LSUBROT=      F    optimize rotation matrix (better conditioning)
   TURBO    =      0    0=normal 1=particle mesh
   IRESTART =      0    0=no restart 2=restart with 2 vectors
   NREBOOT  =      0    no. of reboots
   NMIN     =      0    reboot dimension
   EREF     =   0.00    reference energy to select bands
   IMIX   =      4    mixing-type and parameters
     AMIX     =   0.40;   BMIX     =  1.00
     AMIX_MAG =   1.60;   BMIX_MAG =  1.00
     AMIN     =   0.10
     WC   =   100.;   INIMIX=   1;  MIXPRE=   1;  MAXMIX= -45

 Intra band minimization:
   WEIMIN = 0.0000     energy-eigenvalue tresh-hold
   EBREAK =  0.53E-09  absolut break condition
   DEPER  =   0.30     relativ break condition  

   TIME   =   0.40     timestep for ELM

  volume/ion in A,a.u.               =      19.28       130.13
  Fermi-wavevector in a.u.,A,eV,Ry     =   1.067977  2.018184 15.518470  1.140575
  Thomas-Fermi vector in A             =   2.203611
 
 Write flags
   LWAVE        =      F    write WAVECAR
   LDOWNSAMPLE  =      F    k-point downsampling of WAVECAR
   LCHARG       =      F    write CHGCAR
   LVTOT        =      F    write LOCPOT, total local potential
   LVHAR        =      F    write LOCPOT, Hartree potential only
   LELF         =      F    write electronic localiz. function (ELF)
   LORBIT       =      0    0 simple, 1 ext, 2 COOP (PROOUT), +10 PAW based schemes


 Dipole corrections
   LMONO  =      F    monopole corrections only (constant potential shift)
   LDIPOL =      F    correct potential (dipole corrections)
   IDIPOL =      0    1-x, 2-y, 3-z, 4-all directions 
   EPSILON=  1.0000000 bulk dielectric constant

 Exchange correlation treatment:
   GGA     =    PE    GGA type
   LEXCH   =     8    internal setting for exchange type
   VOSKOWN=      0    Vosko Wilk Nusair interpolation
   LHFCALC =     F    Hartree Fock is set to
   LHFONE  =     F    Hartree Fock one center treatment
   AEXX    =    0.0000 exact exchange contribution

 Linear response parameters
   LEPSILON=     F    determine dielectric tensor
   LRPA    =     F    only Hartree local field effects (RPA)
   LNABLA  =     F    use nabla operator in PAW spheres
   LVEL    =     F    velocity operator in full k-point grid
   LINTERFAST=   F  fast interpolation
   KINTER  =     0    interpolate to denser k-point grid
   CSHIFT  =0.1000    complex shift for real part using Kramers Kronig
   OMEGAMAX=  -1.0    maximum frequency
   DEG_THRESHOLD= 0.2000000E-02 threshold for treating states as degnerate
   RTIME   =   -0.100 relaxation time in fs
  (WPLASMAI=    0.000 imaginary part of plasma frequency in eV, 0.658/RTIME)
   DFIELD  = 0.0000000 0.0000000 0.0000000 field for delta impulse in time
 
 Orbital magnetization related:
   ORBITALMAG=     F  switch on orbital magnetization
   LCHIMAG   =     F  perturbation theory with respect to B field
   DQ        =  0.001000  dq finite difference perturbation B field
   LLRAUG    =     F  two centre corrections for induced B field



--------------------------------------------------------------------------------------------------------


 Static calculation
 charge density and potential will be updated during run
 non-spin polarized calculation
 RMM-DIIS sequential band-by-band
 perform sub-space diagonalisation
    before iterative eigenvector-optimisation
 modified Broyden-mixing scheme, WC =      100.0
 initial mixing is a Kerker type mixing with AMIX =  0.4000 and BMIX =      1.0000
 Hartree-type preconditioning will be used
 using additional bands           78
 real space projection scheme for non local part
 use partial core corrections
 calculate Harris-corrections to forces 
   (improved forces if not selfconsistent)
 use gradient corrections 
 use of overlap-Matrix (Vanderbilt PP)
 Gauss-broadening in eV      SIGMA  =   0.20


--------------------------------------------------------------------------------------------------------


  energy-cutoff  :      400.00
  volume of cell :     2834.74
      direct lattice vectors                 reciprocal lattice vectors
     6.274000000-10.866886767  0.000000000     0.079693975 -0.046011338  0.000000000
     6.274000000 10.866886767  0.000000000     0.079693975  0.046011338  0.000000000
     0.000000000  0.000000000 20.789000000     0.000000000  0.000000000  0.048102362

  length of vectors
    12.548000000 12.548000000 20.789000000     0.092022676  0.092022676  0.048102362


 
 k-points in units of 2pi/SCALE and weight: Automatic                               
   0.00000000  0.00000000  0.00000000       1.000
 
 k-points in reciprocal lattice and weights: Automatic                               
   0.00000000  0.00000000  0.00000000       1.000
 
 position of ions in fractional coordinates (direct lattice) 
   0.41830000  0.32940000  0.62540000
   0.67060000  0.08890000  0.62540000
   0.32940000  0.41830000  0.12540000
   0.41830000  0.32940000  0.87460000
   0.32940000  0.41830000  0.37460000
   0.00350000  0.25010000  0.25000000
   0.25010000  0.00350000  0.75000000
   0.00000000  0.24780000  0.50000000
   0.24780000  0.00000000  0.50000000
   0.58628211  0.46906734  0.42421019
   0.85858878  0.55909759  0.34779852
   0.66080000  0.69530000  0.06060000
   0.30470000  0.96550000  0.06060000
   0.03450000  0.33920000  0.06060000
   0.33920000  0.30470000  0.56060000
   0.69530000  0.03450000  0.56060000
   0.96550000  0.66080000  0.56060000
   0.30470000  0.33920000  0.06060000
   0.03450000  0.69530000  0.06060000
   0.66080000  0.96550000  0.06060000
   0.69530000  0.66080000  0.56060000
   0.96550000  0.30470000  0.56060000
   0.33920000  0.03450000  0.56060000
   0.33920000  0.30470000  0.93940000
   0.69530000  0.03450000  0.93940000
   0.96550000  0.66080000  0.93940000
   0.66080000  0.69530000  0.43940000
   0.30470000  0.96550000  0.43940000
   0.03450000  0.33920000  0.43940000
   0.69530000  0.66080000  0.93940000
   0.96550000  0.30470000  0.93940000
   0.33920000  0.03450000  0.93940000
   0.30470000  0.33920000  0.43940000
   0.03450000  0.69530000  0.43940000
   0.66080000  0.96550000  0.43940000
   0.66800000  0.69120000  0.18680000
   0.30880000  0.97680000  0.18680000
   0.02320000  0.33200000  0.18680000
   0.33200000  0.30880000  0.68680000
   0.69120000  0.02320000  0.68680000
   0.97680000  0.66800000  0.68680000
   0.30880000  0.33200000  0.18680000
   0.02320000  0.69120000  0.18680000
   0.66800000  0.97680000  0.18680000
   0.69120000  0.66800000  0.68680000
   0.97680000  0.30880000  0.68680000
   0.33200000  0.02320000  0.68680000
   0.33200000  0.30880000  0.81320000
   0.69120000  0.02320000  0.81320000
   0.97680000  0.66800000  0.81320000
   0.66800000  0.69120000  0.31320000
   0.30880000  0.97680000  0.31320000
   0.02320000  0.33200000  0.31320000
   0.69120000  0.66800000  0.81320000
   0.97680000  0.30880000  0.81320000
   0.33200000  0.02320000  0.81320000
   0.30880000  0.33200000  0.31320000
   0.02320000  0.69120000  0.31320000
   0.66800000  0.97680000  0.31320000
   0.53030000  0.76520000  0.12880000
   0.23480000  0.76510000  0.12880000
   0.23490000  0.46970000  0.12880000
   0.46970000  0.23480000  0.62880000
   0.76520000  0.23490000  0.62880000
   0.76510000  0.53030000  0.62880000
   0.46970000  0.23480000  0.87120000
   0.76520000  0.23490000  0.87120000
   0.76510000  0.53030000  0.87120000
   0.53030000  0.76520000  0.37120000
   0.23480000  0.76510000  0.37120000
   0.23490000  0.46970000  0.37120000
   0.46850000  0.53140000  0.12530000
   0.46860000  0.93710000  0.12530000
   0.06290000  0.53150000  0.12530000
   0.53150000  0.46860000  0.62530000
   0.53140000  0.06290000  0.62530000
   0.93710000  0.46850000  0.62530000
   0.53150000  0.46860000  0.87470000
   0.53140000  0.06290000  0.87470000
   0.93710000  0.46850000  0.87470000
   0.46850000  0.53140000  0.37470000
   0.46860000  0.93710000  0.37470000
   0.06290000  0.53150000  0.37470000
   0.10130000  0.89870000  0.25000000
   0.10130000  0.20260000  0.25000000
   0.79740000  0.89870000  0.25000000
   0.89870000  0.10130000  0.75000000
   0.89870000  0.79740000  0.75000000
   0.20260000  0.10130000  0.75000000
   0.26840000  0.13420000  0.25000000
   0.86580000  0.13420000  0.25000000
   0.86580000  0.73160000  0.25000000
   0.73160000  0.86580000  0.75000000
   0.13420000  0.86580000  0.75000000
   0.13420000  0.26840000  0.75000000
   0.11590000  0.88420000  0.98190000
   0.11580000  0.23170000  0.98190000
   0.76830000  0.88410000  0.98190000
   0.88410000  0.11580000  0.48190000
   0.88420000  0.76830000  0.48190000
   0.23170000  0.11590000  0.48190000
   0.88410000  0.11580000  0.01810000
   0.88420000  0.76830000  0.01810000
   0.23170000  0.11590000  0.01810000
   0.11590000  0.88420000  0.51810000
   0.11580000  0.23170000  0.51810000
   0.76830000  0.88410000  0.51810000
   0.71647137  0.46166672  0.39948789
   0.58170000  0.67060000  0.12540000
   0.32940000  0.91110000  0.12540000
   0.08890000  0.41830000  0.12540000
   0.91110000  0.58170000  0.62540000
   0.08890000  0.67060000  0.12540000
   0.58170000  0.91110000  0.12540000
   0.67060000  0.58170000  0.62540000
   0.91110000  0.32940000  0.62540000
   0.41830000  0.08890000  0.62540000
   0.67060000  0.08890000  0.87460000
   0.91110000  0.58170000  0.87460000
   0.58170000  0.67060000  0.37460000
   0.32940000  0.91110000  0.37460000
   0.08890000  0.41830000  0.37460000
   0.67060000  0.58170000  0.87460000
   0.91110000  0.32940000  0.87460000
   0.41830000  0.08890000  0.87460000
   0.08890000  0.67060000  0.37460000
   0.58170000  0.91110000  0.37460000
   0.24660000  0.99650000  0.25000000
   0.74990000  0.75340000  0.25000000
   0.75340000  0.00350000  0.75000000
   0.99650000  0.74990000  0.75000000
   0.25010000  0.24660000  0.75000000
   0.00350000  0.75340000  0.25000000
   0.74990000  0.99650000  0.25000000
   0.24660000  0.25010000  0.25000000
   0.99650000  0.24660000  0.75000000
   0.75340000  0.74990000  0.75000000
   0.24780000  0.00000000  0.00000000
   0.00000000  0.24780000  0.00000000
   0.75220000  0.75220000  0.00000000
   0.75220000  0.00000000  0.50000000
   0.00000000  0.75220000  0.50000000
   0.24780000  0.24780000  0.50000000
   0.00000000  0.75220000  0.00000000
   0.75220000  0.00000000  0.00000000
   0.24780000  0.24780000  0.00000000
   0.75220000  0.75220000  0.50000000
 
 position of ions in cartesian coordinates  (Angst):
   4.69106980 -0.96606623 13.00144060
   4.76510300 -6.32126803 13.00144060
   4.69106980  0.96606623  2.60694060
   4.69106980 -0.96606623 18.18205940
   4.69106980  0.96606623  7.78755940
   1.59108640  2.67977428  5.19725000
   1.59108640 -2.67977428 15.59175000
   1.55469720  2.69281454 10.39450000
   1.55469720 -2.69281454 10.39450000
   6.62126242 -1.27375968  8.81890564
   8.89456427 -3.25453687  7.23038342
   8.50817140  0.37490759  1.25981340
   7.96923480  7.18083878  1.25981340
   2.34459380  3.31114040  1.25981340
   4.03982860 -0.37490759 11.65431340
   4.57876520 -7.18083878 11.65431340
  10.20340620 -3.31114040 11.65431340
   4.03982860  0.37490759  1.25981340
   4.57876520  7.18083878  1.25981340
  10.20340620  3.31114040  1.25981340
   8.50817140 -0.37490759 11.65431340
   7.96923480 -7.18083878 11.65431340
   2.34459380 -3.31114040 11.65431340
   4.03982860 -0.37490759 19.52918660
   4.57876520 -7.18083878 19.52918660
  10.20340620 -3.31114040 19.52918660
   8.50817140  0.37490759  9.13468660
   7.96923480  7.18083878  9.13468660
   2.34459380  3.31114040  9.13468660
   8.50817140 -0.37490759 19.52918660
   7.96923480 -7.18083878 19.52918660
   2.34459380 -3.31114040 19.52918660
   4.03982860  0.37490759  9.13468660
   4.57876520  7.18083878  9.13468660
  10.20340620  3.31114040  9.13468660
   8.52762080  0.25211177  3.88338520
   8.06585440  7.25908036  3.88338520
   2.22852480  3.35569463  3.88338520
   4.02037920 -0.25211177 14.27788520
   4.48214560 -7.25908036 14.27788520
  10.31947520 -3.35569463 14.27788520
   4.02037920  0.25211177  3.88338520
   4.48214560  7.25908036  3.88338520
  10.31947520  3.35569463  3.88338520
   8.52762080 -0.25211177 14.27788520
   8.06585440 -7.25908036 14.27788520
   2.22852480 -3.35569463 14.27788520
   4.02037920 -0.25211177 16.90561480
   4.48214560 -7.25908036 16.90561480
  10.31947520 -3.35569463 16.90561480
   8.52762080  0.25211177  6.51111480
   8.06585440  7.25908036  6.51111480
   2.22852480  3.35569463  6.51111480
   8.52762080 -0.25211177 16.90561480
   8.06585440 -7.25908036 16.90561480
   2.22852480 -3.35569463 16.90561480
   4.02037920  0.25211177  6.51111480
   4.48214560  7.25908036  6.51111480
  10.31947520  3.35569463  6.51111480
   8.12796700  2.55263170  2.67762320
   6.27337260  5.76271005  2.67762320
   4.42066040  2.55154501  2.67762320
   4.42003300 -2.55263170 13.07212320
   6.27462740 -5.76271005 13.07212320
   8.12733960 -2.55154501 13.07212320
   4.42003300 -2.55263170 18.11137680
   6.27462740 -5.76271005 18.11137680
   8.12733960 -2.55154501 18.11137680
   8.12796700  2.55263170  7.71687680
   6.27337260  5.76271005  7.71687680
   4.42066040  2.55154501  7.71687680
   6.27337260  0.68352718  2.60486170
   8.81936180  5.09113645  2.60486170
   3.72926560  5.09222314  2.60486170
   6.27462740 -0.68352718 12.99936170
   3.72863820 -5.09113645 12.99936170
   8.81873440 -5.09222314 12.99936170
   6.27462740 -0.68352718 18.18413830
   3.72863820 -5.09113645 18.18413830
   8.81873440 -5.09222314 18.18413830
   6.27337260  0.68352718  7.78963830
   8.81936180  5.09113645  7.78963830
   3.72926560  5.09222314  7.78963830
   6.27400000  8.66525551  5.19725000
   1.90666860  1.10081563  5.19725000
  10.64133140  1.10081563  5.19725000
   6.27400000 -8.66525551 15.59175000
  10.64133140 -1.10081563 15.59175000
   1.90666860 -1.10081563 15.59175000
   2.52591240 -1.45833620  5.19725000
   6.27400000 -7.95021436  5.19725000
  10.02208760 -1.45833620  5.19725000
  10.02208760  1.45833620 15.59175000
   6.27400000  7.95021436 15.59175000
   2.52591240  1.45833620 15.59175000
   6.27462740  8.34902910 20.41271910
   2.18021500  1.25947218 20.41271910
  10.36715760  1.25838549 20.41271910
   6.27337260 -8.34902910 10.01821910
  10.36778500 -1.25947218 10.01821910
   2.18084240 -1.25838549 10.01821910
   6.27337260 -8.34902910  0.37628090
  10.36778500 -1.25947218  0.37628090
   2.18084240 -1.25838549  0.37628090
   6.27462740  8.34902910 10.77078090
   2.18021500  1.25947218 10.77078090
  10.36715760  1.25838549 10.77078090
   7.39163841 -2.76893330  8.30495382
   7.85693020  0.96606623  2.60694060
   7.78289700  6.32126803  2.60694060
   3.18217280  3.57955250  2.60694060
   9.36582720 -3.57955250 13.00144060
   4.76510300  6.32126803  2.60694060
   9.36582720  3.57955250  2.60694060
   7.85693020 -0.96606623 13.00144060
   7.78289700 -6.32126803 13.00144060
   3.18217280 -3.57955250 13.00144060
   4.76510300 -6.32126803 18.18205940
   9.36582720 -3.57955250 18.18205940
   7.85693020  0.96606623  7.78755940
   7.78289700  6.32126803  7.78755940
   3.18217280  3.57955250  7.78755940
   7.85693020 -0.96606623 18.18205940
   7.78289700 -6.32126803 18.18205940
   3.18217280 -3.57955250 18.18205940
   4.76510300  6.32126803  7.78755940
   9.36582720  3.57955250  7.78755940
   7.79920940  8.14907839  5.19725000
   9.43170420  0.03803410  5.19725000
   4.74879060 -8.14907839 15.59175000
  10.95691360 -2.67977428 15.59175000
   3.11629580 -0.03803410 15.59175000
   4.74879060  8.14907839  5.19725000
  10.95691360  2.67977428  5.19725000
   3.11629580  0.03803410  5.19725000
   7.79920940 -8.14907839 15.59175000
   9.43170420 -0.03803410 15.59175000
   1.55469720 -2.69281454  0.00000000
   1.55469720  2.69281454  0.00000000
   9.43860560  0.00000000  0.00000000
   4.71930280 -8.17407223 10.39450000
   4.71930280  8.17407223 10.39450000
   3.10939440  0.00000000 10.39450000
   4.71930280  8.17407223  0.00000000
   4.71930280 -8.17407223  0.00000000
   3.10939440  0.00000000  0.00000000
   9.43860560  0.00000000 10.39450000
 


--------------------------------------------------------------------------------------------------------


 k-point  1 :   0.0000 0.0000 0.0000  plane waves:   51577

 maximum and minimum number of plane-waves per node :      4300     4296

 maximum number of plane-waves:     51577
 maximum index in each direction: 
   IXMAX=   20   IYMAX=   20   IZMAX=   33
   IXMIN=  -20   IYMIN=  -20   IZMIN=  -33


 real space projection operators:
  total allocation   :      41671.34 KBytes
  max/ min on nodes  :       3519.14       3426.81


 parallel 3D FFT for wavefunctions:
    minimum data exchange during FFTs selected (reduces bandwidth)
 parallel 3D FFT for charge:
    minimum data exchange during FFTs selected (reduces bandwidth)


 total amount of memory used by VASP MPI-rank0   157107. kBytes
=======================================================================

   base      :      30000. kBytes
   nonlr-proj:      18026. kBytes
   fftplans  :      24655. kBytes
   grid      :      50981. kBytes
   one-center:        202. kBytes
   wavefun   :      33243. kBytes
 
     INWAV:  cpu time    0.0000: real time    0.0001
 Broyden mixing: mesh for mixing (old mesh)
   NGX = 41   NGY = 41   NGZ = 67
  (NGX  =168   NGY  =168   NGZ  =280)
  gives a total of 112627 points

 initial charge density was supplied:
 charge density of overlapping atoms calculated
 number of electron     787.0000000 magnetization 
 keeping initial charge density in first step


--------------------------------------------------------------------------------------------------------


 Maximum index for non-local projection operator          457
 Maximum index for augmentation-charges         1162 (set IRDMAX)


--------------------------------------------------------------------------------------------------------


 First call to EWALD:  gamma=   0.125
 Maximum number of real-space cells 3x 3x 2
 Maximum number of reciprocal cells 2x 2x 4

    FEWALD:  cpu time    0.0170: real time    0.0178


--------------------------------------- Iteration      1(   1)  ---------------------------------------


    POTLOK:  cpu time    0.7249: real time    0.7296
    SETDIJ:  cpu time    0.0340: real time    0.0340
    EDDIAG:  cpu time    3.3735: real time    3.5437
  RMM-DIIS:  cpu time    5.2572: real time    5.2579
    ORTHCH:  cpu time    0.6389: real time    0.6393
       DOS:  cpu time    0.0020: real time    0.0020
    --------------------------------------------
      LOOP:  cpu time   10.0305: real time   10.2066

 eigenvalue-minimisations  :   472
 total energy-change (2. order) : 0.1153262E+05  (-0.2604739E+05)
 number of electron     787.0000000 magnetization 
 augmentation part      787.0000000 magnetization 

 Free energy of the ion-electron system (eV)
  ---------------------------------------------------
  alpha Z        PSCENC =       748.81113525
  Ewald energy   TEWEN  =    -12817.90412721
  -Hartree energ DENC   =    -31886.11478427
  -exchange      EXHF   =         0.00000000
  -V(xc)+E(xc)   XCENC  =      2216.61776384
  PAW double counting   =     27924.37322623   -27341.73861371
  entropy T*S    EENTRO =        -1.22604980
  eigenvalues    EBANDS =      3476.94577022
  atomic energy  EATOM  =     49212.85278765
  Solvation  Ediel_sol  =         0.00000000
  ---------------------------------------------------
  free energy    TOTEN  =     11532.61710821 eV

  energy without entropy =    11533.84315801  energy(sigma->0) =    11533.23013311


--------------------------------------------------------------------------------------------------------




--------------------------------------- Iteration      1(   2)  ---------------------------------------


    EDDIAG:  cpu time    2.7836: real time    2.7833
  RMM-DIIS:  cpu time    5.2552: real time    5.2561
    ORTHCH:  cpu time    0.6379: real time    0.6386
       DOS:  cpu time    0.0020: real time    0.0019
    --------------------------------------------
      LOOP:  cpu time    8.6787: real time    8.6799

 eigenvalue-minimisations  :   472
 total energy-change (2. order) :-0.7279031E+04  (-0.8669483E+04)
 number of electron     787.0000000 magnetization 
 augmentation part      787.0000000 magnetization 

 Free energy of the ion-electron system (eV)
  ---------------------------------------------------
  alpha Z        PSCENC =       748.81113525
  Ewald energy   TEWEN  =    -12817.90412721
  -Hartree energ DENC   =    -31886.11478427
  -exchange      EXHF   =         0.00000000
  -V(xc)+E(xc)   XCENC  =      2216.61776384
  PAW double counting   =     27924.37322623   -27341.73861371
  entropy T*S    EENTRO =        -0.72175187
  eigenvalues    EBANDS =     -3802.58903506
  atomic energy  EATOM  =     49212.85278765
  Solvation  Ediel_sol  =         0.00000000
  ---------------------------------------------------
  free energy    TOTEN  =      4253.58660086 eV

  energy without entropy =     4254.30835273  energy(sigma->0) =     4253.94747679


--------------------------------------------------------------------------------------------------------




--------------------------------------- Iteration      1(   3)  ---------------------------------------


    EDDIAG:  cpu time    2.8156: real time    2.8159
  RMM-DIIS:  cpu time    5.2512: real time    5.2514
    ORTHCH:  cpu time    0.6379: real time    0.6385
       DOS:  cpu time    0.0020: real time    0.0021
    --------------------------------------------
      LOOP:  cpu time    8.7067: real time    8.7078

 eigenvalue-minimisations  :   472
 total energy-change (2. order) :-0.2963026E+04  (-0.3541704E+04)
 number of electron     787.0000000 magnetization 
 augmentation part      787.0000000 magnetization 

 Free energy of the ion-electron system (eV)
  ---------------------------------------------------
  alpha Z        PSCENC =       748.81113525
  Ewald energy   TEWEN  =    -12817.90412721
  -Hartree energ DENC   =    -31886.11478427
  -exchange      EXHF   =         0.00000000
  -V(xc)+E(xc)   XCENC  =      2216.61776384
  PAW double counting   =     27924.37322623   -27341.73861371
  entropy T*S    EENTRO =        -0.64383231
  eigenvalues    EBANDS =     -6765.69291425
  atomic energy  EATOM  =     49212.85278765
  Solvation  Ediel_sol  =         0.00000000
  ---------------------------------------------------
  free energy    TOTEN  =      1290.56064124 eV

  energy without entropy =     1291.20447355  energy(sigma->0) =     1290.88255739


--------------------------------------------------------------------------------------------------------




--------------------------------------- Iteration      1(   4)  ---------------------------------------


    EDDIAG:  cpu time    3.6155: real time    3.9345
  RMM-DIIS:  cpu time    5.8241: real time    5.8246
    ORTHCH:  cpu time    0.6419: real time    0.6423
       DOS:  cpu time    0.0020: real time    0.0020
    --------------------------------------------
      LOOP:  cpu time   10.0835: real time   10.4035

 eigenvalue-minimisations  :   472
 total energy-change (2. order) :-0.1400649E+04  (-0.1265791E+04)
 number of electron     787.0000000 magnetization 
 augmentation part      787.0000000 magnetization 

 Free energy of the ion-electron system (eV)
  ---------------------------------------------------
  alpha Z        PSCENC =       748.81113525
  Ewald energy   TEWEN  =    -12817.90412721
  -Hartree energ DENC   =    -31886.11478427
  -exchange      EXHF   =         0.00000000
  -V(xc)+E(xc)   XCENC  =      2216.61776384
  PAW double counting   =     27924.37322623   -27341.73861371
  entropy T*S    EENTRO =        -0.31273508
  eigenvalues    EBANDS =     -8166.67318935
  atomic energy  EATOM  =     49212.85278765
  Solvation  Ediel_sol  =         0.00000000
  ---------------------------------------------------
  free energy    TOTEN  =      -110.08853663 eV

  energy without entropy =     -109.77580155  energy(sigma->0) =     -109.93216909


--------------------------------------------------------------------------------------------------------




--------------------------------------- Iteration      1(   5)  ---------------------------------------


    EDDIAG:  cpu time    2.9046: real time    2.9051
  RMM-DIIS:  cpu time    5.8241: real time    5.8250
    ORTHCH:  cpu time    0.6419: real time    0.6426
       DOS:  cpu time    0.0030: real time    0.0021
    --------------------------------------------
      LOOP:  cpu time    9.3736: real time    9.3747

 eigenvalue-minimisations  :   472
 total energy-change (2. order) :-0.5749915E+03  (-0.4336061E+03)
 number of electron     787.0000000 magnetization 
 augmentation part      787.0000000 magnetization 

 Free energy of the ion-electron system (eV)
  ---------------------------------------------------
  alpha Z        PSCENC =       748.81113525
  Ewald energy   TEWEN  =    -12817.90412721
  -Hartree energ DENC   =    -31886.11478427
  -exchange      EXHF   =         0.00000000
  -V(xc)+E(xc)   XCENC  =      2216.61776384
  PAW double counting   =     27924.37322623   -27341.73861371
  entropy T*S    EENTRO =        -0.37864256
  eigenvalues    EBANDS =     -8741.59873403
  atomic energy  EATOM  =     49212.85278765
  Solvation  Ediel_sol  =         0.00000000
  ---------------------------------------------------
  free energy    TOTEN  =      -685.07998880 eV

  energy without entropy =     -684.70134623  energy(sigma->0) =     -684.89066752


--------------------------------------------------------------------------------------------------------




--------------------------------------- Iteration      1(   6)  ---------------------------------------


    EDDIAG:  cpu time    2.9136: real time    2.9142
  RMM-DIIS:  cpu time    5.8311: real time    5.8319
    ORTHCH:  cpu time    0.6419: real time    0.6423
       DOS:  cpu time    0.0020: real time    0.0021
    --------------------------------------------
      LOOP:  cpu time    9.3886: real time    9.3904

 eigenvalue-minimisations  :   472
 total energy-change (2. order) :-0.2763607E+03  (-0.1940900E+03)
 number of electron     787.0000000 magnetization 
 augmentation part      787.0000000 magnetization 

 Free energy of the ion-electron system (eV)
  ---------------------------------------------------
  alpha Z        PSCENC =       748.81113525
  Ewald energy   TEWEN  =    -12817.90412721
  -Hartree energ DENC   =    -31886.11478427
  -exchange      EXHF   =         0.00000000
  -V(xc)+E(xc)   XCENC  =      2216.61776384
  PAW double counting   =     27924.37322623   -27341.73861371
  entropy T*S    EENTRO =        -0.66066761
  eigenvalues    EBANDS =     -9017.67744006
  atomic energy  EATOM  =     49212.85278765
  Solvation  Ediel_sol  =         0.00000000
  ---------------------------------------------------
  free energy    TOTEN  =      -961.44071987 eV

  energy without entropy =     -960.78005226  energy(sigma->0) =     -961.11038607


--------------------------------------------------------------------------------------------------------




--------------------------------------- Iteration      1(   7)  ---------------------------------------


    EDDIAG:  cpu time    2.9066: real time    2.9082
  RMM-DIIS:  cpu time    5.8241: real time    5.8249
    ORTHCH:  cpu time    0.6429: real time    0.6432
       DOS:  cpu time    0.0020: real time    0.0021
    --------------------------------------------
      LOOP:  cpu time    9.3756: real time    9.3784

 eigenvalue-minimisations  :   472
 total energy-change (2. order) :-0.1594937E+03  (-0.1131786E+03)
 number of electron     787.0000000 magnetization 
 augmentation part      787.0000000 magnetization 

 Free energy of the ion-electron system (eV)
  ---------------------------------------------------
  alpha Z        PSCENC =       748.81113525
  Ewald energy   TEWEN  =    -12817.90412721
  -Hartree energ DENC   =    -31886.11478427
  -exchange      EXHF   =         0.00000000
  -V(xc)+E(xc)   XCENC  =      2216.61776384
  PAW double counting   =     27924.37322623   -27341.73861371
  entropy T*S    EENTRO =        -0.59683057
  eigenvalues    EBANDS =     -9177.23499723
  atomic energy  EATOM  =     49212.85278765
  Solvation  Ediel_sol  =         0.00000000
  ---------------------------------------------------
  free energy    TOTEN  =     -1120.93444001 eV

  energy without entropy =    -1120.33760944  energy(sigma->0) =    -1120.63602472


--------------------------------------------------------------------------------------------------------




--------------------------------------- Iteration      1(   8)  ---------------------------------------


    EDDIAG:  cpu time    2.9056: real time    2.9057
  RMM-DIIS:  cpu time    5.8391: real time    5.8402
    ORTHCH:  cpu time    0.6429: real time    0.6425
       DOS:  cpu time    0.0020: real time    0.0020
    --------------------------------------------
      LOOP:  cpu time    9.3896: real time    9.3904

 eigenvalue-minimisations  :   472
 total energy-change (2. order) :-0.9007995E+02  (-0.6516912E+02)
 number of electron     787.0000000 magnetization 
 augmentation part      787.0000000 magnetization 

 Free energy of the ion-electron system (eV)
  ---------------------------------------------------
  alpha Z        PSCENC =       748.81113525
  Ewald energy   TEWEN  =    -12817.90412721
  -Hartree energ DENC   =    -31886.11478427
  -exchange      EXHF   =         0.00000000
  -V(xc)+E(xc)   XCENC  =      2216.61776384
  PAW double counting   =     27924.37322623   -27341.73861371
  entropy T*S    EENTRO =        -0.58868653
  eigenvalues    EBANDS =     -9267.32309269
  atomic energy  EATOM  =     49212.85278765
  Solvation  Ediel_sol  =         0.00000000
  ---------------------------------------------------
  free energy    TOTEN  =     -1211.01439143 eV

  energy without entropy =    -1210.42570490  energy(sigma->0) =    -1210.72004816


--------------------------------------------------------------------------------------------------------




--------------------------------------- Iteration      1(   9)  ---------------------------------------


    EDDIAG:  cpu time    2.9046: real time    2.9048
  RMM-DIIS:  cpu time   16.3685: real time   16.3819
    ORTHCH:  cpu time    0.6449: real time    0.6448
       DOS:  cpu time    0.0020: real time    0.0021
    --------------------------------------------
      LOOP:  cpu time   19.9200: real time   19.9335

 eigenvalue-minimisations  :  1452
 total energy-change (2. order) :-0.1134969E+03  (-0.9966646E+02)
 number of electron     787.0000000 magnetization 
 augmentation part      787.0000000 magnetization 

 Free energy of the ion-electron system (eV)
  ---------------------------------------------------
  alpha Z        PSCENC =       748.81113525
  Ewald energy   TEWEN  =    -12817.90412721
  -Hartree energ DENC   =    -31886.11478427
  -exchange      EXHF   =         0.00000000
  -V(xc)+E(xc)   XCENC  =      2216.61776384
  PAW double counting   =     27924.37322623   -27341.73861371
  entropy T*S    EENTRO =        -0.60503816
  eigenvalues    EBANDS =     -9380.80360427
  atomic energy  EATOM  =     49212.85278765
  Solvation  Ediel_sol  =         0.00000000
  ---------------------------------------------------
  free energy    TOTEN  =     -1324.51125464 eV

  energy without entropy =    -1323.90621648  energy(sigma->0) =    -1324.20873556


--------------------------------------------------------------------------------------------------------




--------------------------------------- Iteration      1(  10)  ---------------------------------------


    EDDIAG:  cpu time    3.1835: real time    3.3030
  RMM-DIIS:  cpu time   16.6055: real time   16.6186
    ORTHCH:  cpu time    0.6349: real time    0.6350
       DOS:  cpu time    0.0020: real time    0.0021
    --------------------------------------------
      LOOP:  cpu time   20.4259: real time   20.5587

 eigenvalue-minimisations  :  1500
 total energy-change (2. order) :-0.6452368E+01  (-0.8346288E+01)
 number of electron     787.0000000 magnetization 
 augmentation part      787.0000000 magnetization 

 Free energy of the ion-electron system (eV)
  ---------------------------------------------------
  alpha Z        PSCENC =       748.81113525
  Ewald energy   TEWEN  =    -12817.90412721
  -Hartree energ DENC   =    -31886.11478427
  -exchange      EXHF   =         0.00000000
  -V(xc)+E(xc)   XCENC  =      2216.61776384
  PAW double counting   =     27924.37322623   -27341.73861371
  entropy T*S    EENTRO =        -0.61219785
  eigenvalues    EBANDS =     -9387.24881247
  atomic energy  EATOM  =     49212.85278765
  Solvation  Ediel_sol  =         0.00000000
  ---------------------------------------------------
  free energy    TOTEN  =     -1330.96362252 eV

  energy without entropy =    -1330.35142467  energy(sigma->0) =    -1330.65752360


--------------------------------------------------------------------------------------------------------




--------------------------------------- Iteration      1(  11)  ---------------------------------------


    EDDIAG:  cpu time    2.8336: real time    2.8344
  RMM-DIIS:  cpu time   16.9454: real time   16.9606
    ORTHCH:  cpu time    0.6359: real time    0.6367
       DOS:  cpu time    0.0030: real time    0.0021
    --------------------------------------------
      LOOP:  cpu time   20.4179: real time   20.4338

 eigenvalue-minimisations  :  1495
 total energy-change (2. order) :-0.5371026E-01  (-0.1795428E+00)
 number of electron     787.0000000 magnetization 
 augmentation part      787.0000000 magnetization 

 Free energy of the ion-electron system (eV)
  ---------------------------------------------------
  alpha Z        PSCENC =       748.81113525
  Ewald energy   TEWEN  =    -12817.90412721
  -Hartree energ DENC   =    -31886.11478427
  -exchange      EXHF   =         0.00000000
  -V(xc)+E(xc)   XCENC  =      2216.61776384
  PAW double counting   =     27924.37322623   -27341.73861371
  entropy T*S    EENTRO =        -0.61288838
  eigenvalues    EBANDS =     -9387.30183220
  atomic energy  EATOM  =     49212.85278765
  Solvation  Ediel_sol  =         0.00000000
  ---------------------------------------------------
  free energy    TOTEN  =     -1331.01733279 eV

  energy without entropy =    -1330.40444441  energy(sigma->0) =    -1330.71088860


--------------------------------------------------------------------------------------------------------




--------------------------------------- Iteration      1(  12)  ---------------------------------------


    EDDIAG:  cpu time    3.0335: real time    3.0347
  RMM-DIIS:  cpu time   16.4965: real time   16.5093
    ORTHCH:  cpu time    0.6339: real time    0.6340
       DOS:  cpu time    0.0020: real time    0.0021
    CHARGE:  cpu time    0.7829: real time    0.7845
    MIXING:  cpu time    0.0180: real time    0.0182
    --------------------------------------------
      LOOP:  cpu time   20.9668: real time   20.9829

 eigenvalue-minimisations  :  1487
 total energy-change (2. order) :-0.1831698E-01  (-0.1796551E-01)
 number of electron     786.9999717 magnetization 
 augmentation part       81.9959734 magnetization 

 Broyden mixing:
  rms(total) = 0.95134E+01    rms(broyden)= 0.95078E+01
  rms(prec ) = 0.10555E+02
  weight for this iteration     100.00

 Free energy of the ion-electron system (eV)
  ---------------------------------------------------
  alpha Z        PSCENC =       748.81113525
  Ewald energy   TEWEN  =    -12817.90412721
  -Hartree energ DENC   =    -31886.11478427
  -exchange      EXHF   =         0.00000000
  -V(xc)+E(xc)   XCENC  =      2216.61776384
  PAW double counting   =     27924.37322623   -27341.73861371
  entropy T*S    EENTRO =        -0.61338396
  eigenvalues    EBANDS =     -9387.31965359
  atomic energy  EATOM  =     49212.85278765
  Solvation  Ediel_sol  =         0.00000000
  ---------------------------------------------------
  free energy    TOTEN  =     -1331.03564976 eV

  energy without entropy =    -1330.42226580  energy(sigma->0) =    -1330.72895778


--------------------------------------------------------------------------------------------------------




--------------------------------------- Iteration      1(  13)  ---------------------------------------


    POTLOK:  cpu time    1.1098: real time    1.8547
    SETDIJ:  cpu time    0.0340: real time    0.0340
    EDDIAG:  cpu time    2.8506: real time    2.8513
  RMM-DIIS:  cpu time   14.8447: real time   14.8469
    ORTHCH:  cpu time    0.6359: real time    0.6357
       DOS:  cpu time    0.0020: real time    0.0020
    CHARGE:  cpu time    0.7879: real time    0.7884
    MIXING:  cpu time    0.0230: real time    0.0254
    --------------------------------------------
      LOOP:  cpu time   20.2879: real time   21.0384

 eigenvalue-minimisations  :  1383
 total energy-change (2. order) : 0.8222034E+02  (-0.1713910E+03)
 number of electron     786.9999775 magnetization 
 augmentation part       76.6382906 magnetization 

 Broyden mixing:
  rms(total) = 0.52846E+01    rms(broyden)= 0.52800E+01
  rms(prec ) = 0.60509E+01
  weight for this iteration     100.00

 eigenvalues of (default mixing * dielectric matrix)
  average eigenvalue GAMMA=   0.6864
  0.6864

 Free energy of the ion-electron system (eV)
  ---------------------------------------------------
  alpha Z        PSCENC =       748.81113525
  Ewald energy   TEWEN  =    -12817.90412721
  -Hartree energ DENC   =    -33511.20256494
  -exchange      EXHF   =         0.00000000
  -V(xc)+E(xc)   XCENC  =      2329.34508306
  PAW double counting   =     32512.01814914   -31893.90733194
  entropy T*S    EENTRO =        -0.57312011
  eigenvalues    EBANDS =     -7828.25532064
  atomic energy  EATOM  =     49212.85278765
  Solvation  Ediel_sol  =         0.00000000
  ---------------------------------------------------
  free energy    TOTEN  =     -1248.81530974 eV

  energy without entropy =    -1248.24218963  energy(sigma->0) =    -1248.52874968


--------------------------------------------------------------------------------------------------------




--------------------------------------- Iteration      1(  14)  ---------------------------------------


    POTLOK:  cpu time    0.7349: real time    0.7356
    SETDIJ:  cpu time    0.0330: real time    0.0325
    EDDIAG:  cpu time    2.8016: real time    2.8023
  RMM-DIIS:  cpu time   12.4141: real time   12.4173
    ORTHCH:  cpu time    0.6369: real time    0.6364
       DOS:  cpu time    0.0020: real time    0.0022
    CHARGE:  cpu time    0.7659: real time    0.7656
    MIXING:  cpu time    0.0220: real time    0.0250
    --------------------------------------------
      LOOP:  cpu time   17.4104: real time   17.4169

 eigenvalue-minimisations  :  1148
 total energy-change (2. order) : 0.1178884E+03  (-0.2743862E+02)
 number of electron     786.9999771 magnetization 
 augmentation part       75.3389792 magnetization 

 Broyden mixing:
  rms(total) = 0.33818E+01    rms(broyden)= 0.33779E+01
  rms(prec ) = 0.37949E+01
  weight for this iteration     100.00

 eigenvalues of (default mixing * dielectric matrix)
  average eigenvalue GAMMA=   0.6783
  0.6783  0.6783

 Free energy of the ion-electron system (eV)
  ---------------------------------------------------
  alpha Z        PSCENC =       748.81113525
  Ewald energy   TEWEN  =    -12817.90412721
  -Hartree energ DENC   =    -33836.73919968
  -exchange      EXHF   =         0.00000000
  -V(xc)+E(xc)   XCENC  =      2342.61157574
  PAW double counting   =     33662.82193828   -33119.49473968
  entropy T*S    EENTRO =        -0.45585381
  eigenvalues    EBANDS =     -7323.43042902
  atomic energy  EATOM  =     49212.85278765
  Solvation  Ediel_sol  =         0.00000000
  ---------------------------------------------------
  free energy    TOTEN  =     -1130.92691247 eV

  energy without entropy =    -1130.47105867  energy(sigma->0) =    -1130.69898557


--------------------------------------------------------------------------------------------------------




--------------------------------------- Iteration      1(  15)  ---------------------------------------


    POTLOK:  cpu time    0.7359: real time    0.7363
    SETDIJ:  cpu time    0.0330: real time    0.0331
    EDDIAG:  cpu time    2.8046: real time    2.8053
  RMM-DIIS:  cpu time   14.0979: real time   14.0998
    ORTHCH:  cpu time    0.6369: real time    0.6366
       DOS:  cpu time    0.0020: real time    0.0021
    CHARGE:  cpu time    0.7539: real time    0.7543
    MIXING:  cpu time    0.0230: real time    0.0251
    --------------------------------------------
      LOOP:  cpu time   19.0871: real time   19.0925

 eigenvalue-minimisations  :  1308
 total energy-change (2. order) : 0.1588323E+02  (-0.6922973E+01)
 number of electron     786.9999775 magnetization 
 augmentation part       73.9310785 magnetization 

 Broyden mixing:
  rms(total) = 0.23292E+01    rms(broyden)= 0.23254E+01
  rms(prec ) = 0.26939E+01
  weight for this iteration     100.00

 eigenvalues of (default mixing * dielectric matrix)
  average eigenvalue GAMMA=   0.7057
  0.8508  0.8508  0.4157

 Free energy of the ion-electron system (eV)
  ---------------------------------------------------
  alpha Z        PSCENC =       748.81113525
  Ewald energy   TEWEN  =    -12817.90412721
  -Hartree energ DENC   =    -33960.87789007
  -exchange      EXHF   =         0.00000000
  -V(xc)+E(xc)   XCENC  =      2348.61623815
  PAW double counting   =     34161.13555120   -33634.18739517
  entropy T*S    EENTRO =        -0.50900762
  eigenvalues    EBANDS =     -7172.98097073
  atomic energy  EATOM  =     49212.85278765
  Solvation  Ediel_sol  =         0.00000000
  ---------------------------------------------------
  free energy    TOTEN  =     -1115.04367854 eV

  energy without entropy =    -1114.53467092  energy(sigma->0) =    -1114.78917473


--------------------------------------------------------------------------------------------------------




--------------------------------------- Iteration      1(  16)  ---------------------------------------


    POTLOK:  cpu time    0.7339: real time    0.7353
    SETDIJ:  cpu time    0.0340: real time    0.0333
    EDDIAG:  cpu time    2.8146: real time    2.8149
  RMM-DIIS:  cpu time   14.7388: real time   14.7416
    ORTHCH:  cpu time    0.6349: real time    0.6349
       DOS:  cpu time    0.0020: real time    0.0021
    CHARGE:  cpu time    0.7609: real time    0.7608
    MIXING:  cpu time    0.0220: real time    0.0218
    --------------------------------------------
      LOOP:  cpu time   19.7410: real time   19.7449

 eigenvalue-minimisations  :  1371
 total energy-change (2. order) : 0.1383134E+00  (-0.2798035E+01)
 number of electron     786.9999771 magnetization 
 augmentation part       72.4301866 magnetization 

 Broyden mixing:
  rms(total) = 0.21138E+01    rms(broyden)= 0.21086E+01
  rms(prec ) = 0.24599E+01
  weight for this iteration     100.00

 eigenvalues of (default mixing * dielectric matrix)
  average eigenvalue GAMMA=   0.6425
  0.8982  0.8982  0.3868  0.3868

 Free energy of the ion-electron system (eV)
  ---------------------------------------------------
  alpha Z        PSCENC =       748.81113525
  Ewald energy   TEWEN  =    -12817.90412721
  -Hartree energ DENC   =    -34065.02879983
  -exchange      EXHF   =         0.00000000
  -V(xc)+E(xc)   XCENC  =      2353.02849148
  PAW double counting   =     34612.02911861   -34088.36871472
  entropy T*S    EENTRO =        -0.49404072
  eigenvalues    EBANDS =     -7069.83121565
  atomic energy  EATOM  =     49212.85278765
  Solvation  Ediel_sol  =         0.00000000
  ---------------------------------------------------
  free energy    TOTEN  =     -1114.90536515 eV

  energy without entropy =    -1114.41132443  energy(sigma->0) =    -1114.65834479


--------------------------------------------------------------------------------------------------------




--------------------------------------- Iteration      1(  17)  ---------------------------------------


    POTLOK:  cpu time    1.1828: real time    1.1839
    SETDIJ:  cpu time    0.0330: real time    0.0328
    EDDIAG:  cpu time    2.8246: real time    2.8252
  RMM-DIIS:  cpu time   15.4606: real time   15.4629
    ORTHCH:  cpu time    0.6369: real time    0.6375
       DOS:  cpu time    0.0030: real time    0.0022
    CHARGE:  cpu time    0.7939: real time    0.7939
    MIXING:  cpu time    0.0240: real time    0.0249
    --------------------------------------------
      LOOP:  cpu time   20.9588: real time   20.9634

 eigenvalue-minimisations  :  1441
 total energy-change (2. order) : 0.3357677E+01  (-0.1281064E+01)
 number of electron     786.9999772 magnetization 
 augmentation part       73.1723084 magnetization 

 Broyden mixing:
  rms(total) = 0.17945E+01    rms(broyden)= 0.17904E+01
  rms(prec ) = 0.21141E+01
  weight for this iteration     100.00

 eigenvalues of (default mixing * dielectric matrix)
  average eigenvalue GAMMA=   0.6401
  1.0426  1.0426  0.4031  0.4031  0.3093

 Free energy of the ion-electron system (eV)
  ---------------------------------------------------
  alpha Z        PSCENC =       748.81113525
  Ewald energy   TEWEN  =    -12817.90412721
  -Hartree energ DENC   =    -34132.65896863
  -exchange      EXHF   =         0.00000000
  -V(xc)+E(xc)   XCENC  =      2356.23901983
  PAW double counting   =     34937.01066969   -34409.41588770
  entropy T*S    EENTRO =        -0.67506035
  eigenvalues    EBANDS =     -7005.80725627
  atomic energy  EATOM  =     49212.85278765
  Solvation  Ediel_sol  =         0.00000000
  ---------------------------------------------------
  free energy    TOTEN  =     -1111.54768774 eV

  energy without entropy =    -1110.87262739  energy(sigma->0) =    -1111.21015757


--------------------------------------------------------------------------------------------------------




--------------------------------------- Iteration      1(  18)  ---------------------------------------


    POTLOK:  cpu time    0.7349: real time    0.7346
    SETDIJ:  cpu time    0.0320: real time    0.0324
    EDDIAG:  cpu time    2.7906: real time    2.7902
  RMM-DIIS:  cpu time   14.7788: real time   14.7811
    ORTHCH:  cpu time    0.6359: real time    0.6365
       DOS:  cpu time    0.0020: real time    0.0022
    CHARGE:  cpu time    0.7509: real time    0.7510
    MIXING:  cpu time    0.0270: real time    0.0261
    --------------------------------------------
      LOOP:  cpu time   19.7520: real time   19.7541

 eigenvalue-minimisations  :  1377
 total energy-change (2. order) :-0.2500771E+01  (-0.5439326E+00)
 number of electron     786.9999766 magnetization 
 augmentation part       69.1009392 magnetization 

 Broyden mixing:
  rms(total) = 0.52128E+01    rms(broyden)= 0.52117E+01
  rms(prec ) = 0.60180E+01
  weight for this iteration     100.00

 eigenvalues of (default mixing * dielectric matrix)
  average eigenvalue GAMMA=   0.5323
  1.0194  1.0194  0.4075  0.4075  0.3136  0.0264

 Free energy of the ion-electron system (eV)
  ---------------------------------------------------
  alpha Z        PSCENC =       748.81113525
  Ewald energy   TEWEN  =    -12817.90412721
  -Hartree energ DENC   =    -34203.46136105
  -exchange      EXHF   =         0.00000000
  -V(xc)+E(xc)   XCENC  =      2359.11634852
  PAW double counting   =     35217.46743314   -34689.53335569
[...]
   0.203E+03 0.284E+03 0.531E+01   -.207E+03 -.298E+03 -.218E+01   0.513E+01 0.137E+02 -.413E+01   0.624E-02 -.453E-01 0.765E-02
   0.561E+02 0.415E+02 0.500E+02   -.586E+02 -.408E+02 -.504E+02   0.123E+01 -.116E+01 0.425E-01   0.314E-02 0.264E-02 -.109E-01
   -.737E+02 0.223E+02 0.427E+02   0.722E+02 -.222E+02 -.428E+02   0.198E+01 -.217E+00 -.129E+00   0.899E-03 0.648E-04 -.938E-02
   0.169E+02 -.604E+02 0.442E+02   -.159E+02 0.571E+02 -.418E+02   -.915E+00 0.301E+01 -.193E+01   -.256E-02 0.462E-03 -.843E-02
   -.289E+02 0.808E+02 -.336E+02   0.281E+02 -.795E+02 0.340E+02   0.965E+00 -.176E+01 -.372E+00   0.197E-02 -.203E-02 0.154E-01
   0.629E+02 0.270E+02 0.523E+02   -.613E+02 -.279E+02 -.533E+02   -.194E+01 0.391E+00 0.271E+00   0.255E-02 -.543E-03 -.105E-01
   -.176E+02 -.735E+02 0.417E+02   0.168E+02 0.716E+02 -.414E+02   0.950E+00 0.206E+01 -.334E+00   0.598E-03 0.928E-03 -.876E-02
   0.494E+02 -.603E+02 -.456E+02   -.519E+02 0.595E+02 0.465E+02   0.127E+01 0.129E+01 -.427E+00   -.394E-02 0.188E-02 0.195E-01
   -.676E+02 -.622E+01 -.182E+02   0.644E+02 0.585E+01 0.160E+02   0.309E+01 0.423E+00 0.151E+01   -.723E-02 -.204E-02 0.124E-01
   0.270E+02 0.720E+02 -.189E+02   -.266E+02 -.716E+02 0.189E+02   -.509E+00 -.103E+01 -.592E-01   -.138E-02 -.512E-03 0.143E-01
   0.727E+02 -.220E+02 -.137E+02   -.712E+02 0.220E+02 0.134E+02   -.189E+01 0.159E+00 0.268E+00   -.204E-02 0.331E-02 -.880E-02
   -.184E+02 0.729E+02 -.150E+02   0.175E+02 -.711E+02 0.146E+02   0.919E+00 -.201E+01 0.378E+00   -.257E-03 0.875E-03 -.691E-02
   0.267E+02 -.547E+02 0.115E+02   -.269E+02 0.570E+02 -.126E+02   0.400E+00 -.124E+01 0.289E+00   0.100E-01 0.254E-01 -.148E-02
   -.748E+02 0.279E+02 -.164E+02   0.747E+02 -.256E+02 0.195E+02   0.126E+01 -.160E+01 -.192E+01   0.931E-03 -.567E-03 0.786E-02
   0.137E+02 -.327E+02 -.163E+02   -.150E+02 0.280E+02 0.163E+02   0.648E+00 0.353E+01 0.131E+00   -.119E-02 -.729E-02 0.443E-02
   0.566E+02 -.521E+02 -.155E+02   -.587E+02 0.515E+02 0.154E+02   0.108E+01 0.115E+01 0.210E+00   -.594E-02 0.234E-03 -.718E-02
   -.716E+02 -.191E+02 -.147E+02   0.698E+02 0.190E+02 0.146E+02   0.208E+01 0.132E+00 0.211E+00   -.140E-02 -.615E-03 -.731E-02
   0.187E+02 0.674E+02 -.125E+02   -.175E+02 -.645E+02 0.102E+02   -.108E+01 -.283E+01 0.188E+01   0.123E-02 0.728E-02 -.140E-01
   -.270E+02 0.780E+02 -.290E+02   0.298E+02 -.809E+02 0.320E+02   -.153E+01 0.637E+00 -.802E+00   0.175E-01 -.982E-02 0.681E-02
   -.184E+02 -.797E+02 -.147E+02   0.185E+02 0.786E+02 0.147E+02   0.549E+00 0.164E+01 0.176E+00   0.987E-03 0.288E-02 0.615E-02
   -.867E+02 -.634E+01 0.267E+02   0.866E+02 0.605E+01 -.266E+02   0.122E+01 0.396E+00 -.809E-01   -.215E-04 -.240E-03 -.390E-02
   0.162E+02 0.333E+02 0.557E+02   -.160E+02 -.297E+02 -.567E+02   -.479E+00 -.276E+01 0.392E+00   0.628E-02 0.859E-02 -.104E-01
   0.819E+02 0.261E+01 -.133E+02   -.812E+02 -.655E+00 0.110E+02   -.138E+01 -.160E+01 0.174E+01   -.118E-03 0.469E-02 -.355E-02
   -.512E+02 0.697E+02 -.178E+02   0.531E+02 -.692E+02 0.177E+02   -.869E+00 -.100E+01 0.659E-02   0.698E-02 0.730E-04 0.183E-02
   -.366E+02 -.691E+02 -.161E+02   0.372E+02 0.662E+02 0.160E+02   -.342E+00 0.303E+01 -.448E-02   0.201E-02 -.949E-02 0.269E-02
   0.223E+02 -.120E+02 0.694E+02   -.192E+02 0.132E+02 -.729E+02   -.228E+01 -.532E-01 0.112E+01   0.116E-01 0.960E-03 -.114E-01
   -.490E+02 -.711E+02 0.245E+02   0.514E+02 0.712E+02 -.246E+02   -.109E+01 0.696E+00 0.206E-01   0.136E-02 0.591E-03 -.371E-02
   -.234E+02 0.612E+02 0.312E+02   0.239E+02 -.580E+02 -.311E+02   -.315E+00 -.311E+01 0.835E-01   -.689E-02 0.287E-02 -.324E-02
   -.830E+02 0.690E+01 -.133E+02   0.816E+02 -.663E+01 0.132E+02   0.180E+01 -.331E+00 0.678E-01   0.280E-04 -.383E-02 -.537E-04
   0.360E+02 -.771E+02 -.189E+02   -.355E+02 0.755E+02 0.190E+02   -.661E+00 0.193E+01 -.665E-01   0.294E-03 0.116E-02 0.226E-02
   -.232E+02 0.337E+02 0.176E+02   0.232E+02 -.332E+02 -.179E+02   0.333E+00 -.787E+00 0.135E+00   0.278E-02 0.575E-04 -.136E-01
   -.222E+02 -.326E+02 0.140E+02   0.222E+02 0.321E+02 -.139E+02   0.245E+00 0.797E+00 -.153E-01   -.732E-03 -.926E-03 -.109E-01
   0.410E+02 -.212E+01 0.181E+02   -.408E+02 0.222E+01 -.182E+02   -.672E+00 -.836E-01 0.553E-01   -.436E-05 0.395E-03 -.111E-01
   0.133E+02 -.388E+02 -.277E+02   -.107E+02 0.402E+02 0.290E+02   -.205E+01 -.557E+00 -.104E+01   0.113E-02 0.503E-02 0.168E-01
   -.323E+02 0.361E+02 -.586E+02   0.360E+02 -.348E+02 0.612E+02   -.259E+01 -.120E+01 -.119E+01   0.151E-01 -.252E-03 0.200E-01
   -.697E+01 -.141E+02 -.343E+02   0.640E+01 0.140E+02 0.347E+02   0.544E+00 0.167E+00 -.193E+00   -.872E-02 -.138E-02 0.203E-01
   0.173E+02 0.354E+02 0.191E+02   -.171E+02 -.348E+02 -.194E+02   -.367E+00 -.829E+00 0.779E-01   0.176E-02 0.291E-03 -.110E-01
   0.201E+02 -.355E+02 0.153E+02   -.198E+02 0.351E+02 -.153E+02   -.488E+00 0.682E+00 0.188E-01   -.361E-04 0.801E-03 -.994E-02
   -.411E+02 -.676E+00 0.160E+02   0.441E+02 0.699E+00 -.159E+02   -.182E+01 0.365E-01 -.282E-01   0.347E-04 -.366E-02 -.170E-01
   -.769E+01 -.465E+02 -.606E+02   0.950E+01 0.465E+02 0.624E+02   -.121E+01 -.456E-01 -.680E+00   0.131E-01 0.114E-01 0.216E-01
 -----------------------------------------------------------------------------------------------
   0.205E+02 -.515E+01 -.242E+01   -.178E-14 0.497E-13 0.213E-13   -.207E+02 0.499E+01 0.238E+01   0.187E+00 0.160E+00 0.389E-01
 
 
 POSITION                                       TOTAL-FORCE (eV/Angst)
 -----------------------------------------------------------------------------------
      4.69107     -0.96607     13.00144         0.673827      0.504909      0.073997
      4.76510     -6.32127     13.00144        -0.493495     -0.026572      0.022756
      4.69107      0.96607      2.60694         0.620763     -0.414774     -0.175358
      4.69107     -0.96607     18.18206         0.677703      0.386706      0.158203
      4.69107      0.96607      7.78756        -1.115017      0.282882     -0.304542
      1.59109      2.67977      5.19725        -0.642712      0.347494     -0.018002
      1.59109     -2.67977     15.59175        -0.674073     -0.438678      0.140973
      1.55470      2.69281     10.39450         0.005797      0.340345      0.013804
      1.55470     -2.69281     10.39450        -0.156336     -0.433096     -0.203513
      6.62126     -1.27376      8.81891        -0.162437      0.478061     -0.549345
      8.89456     -3.25454      7.23038        -1.930814      0.914771      1.179912
      8.50817      0.37491      1.25981         0.205779     -0.252971     -0.202696
      7.96923      7.18084      1.25981         0.179796     -0.008104      0.006292
      2.34459      3.31114      1.25981        -0.303564      0.222555     -0.418201
      4.03983     -0.37491     11.65431        -1.615974      1.487761     -3.595119
      4.57877     -7.18084     11.65431        -0.553907     -2.452988     -3.783435
     10.20341     -3.31114     11.65431        -0.032279     -0.184837     -0.319485
      4.03983      0.37491      1.25981        -1.984061     -1.675311     -3.665751
      4.57877      7.18084      1.25981        -0.204488      0.042440      0.105290
     10.20341      3.31114      1.25981         0.150536      0.184141     -0.106351
      8.50817     -0.37491     11.65431         0.132879      0.302409     -0.830912
      7.96923     -7.18084     11.65431         0.420476      2.614013      3.398422
      2.34459     -3.31114     11.65431         2.052066     -1.576430      3.264527
      4.03983     -0.37491     19.52919        -1.970059      1.658558      3.642490
      4.57877     -7.18084     19.52919        -0.207064     -0.088356      0.167390
     10.20341     -3.31114     19.52919         0.203721     -0.163459      0.220963
      8.50817      0.37491      9.13469        -0.546185     -0.530535      0.041301
      7.96923      7.18084      9.13469         0.341206     -2.773191     -3.701266
      2.34459      3.31114      9.13469         2.156977      1.823448     -3.416597
      8.50817     -0.37491     19.52919         0.207588      0.241038      0.321763
      7.96923     -7.18084     19.52919         0.204724     -0.048185      0.111638
      2.34459     -3.31114     19.52919        -0.340235     -0.182555      0.471774
      4.03983      0.37491      9.13469        -1.052775     -1.885673      3.367597
      4.57877      7.18084      9.13469        -0.569628     -0.167126     -0.849929
     10.20341      3.31114      9.13469        -0.254994      0.145959     -0.317557
      8.52762      0.25211      3.88339         0.298683     -0.583692      0.558344
      8.06585      7.25908      3.88339         0.188824      0.067012      0.088767
      2.22852      3.35569      3.88339         1.780058      1.873997     -3.572851
      4.02038     -0.25211     14.27789        -1.836064      1.917290      3.395941
      4.48215     -7.25908     14.27789        -0.707250     -2.577866      3.574312
     10.31948     -3.35569     14.27789        -0.035255     -0.270432     -0.174601
      4.02038      0.25211      3.88339        -1.819397     -1.943947      3.358522
      4.48215      7.25908      3.88339        -0.447287      0.357660      0.862154
     10.31948      3.35569      3.88339        -0.036846      0.266227     -0.100441
      8.52762     -0.25211     14.27789         0.079759      0.305727      0.029049
      8.06585     -7.25908     14.27789         0.388150     -0.149276      0.320457
      2.22852     -3.35569     14.27789         1.698270     -1.731047     -3.423481
      4.02038     -0.25211     16.90561        -1.837500      1.925160     -3.371866
      4.48215     -7.25908     16.90561        -0.288773     -0.017564      0.243798
     10.31948     -3.35569     16.90561        -0.014117     -0.292959      0.157166
      8.52762      0.25211      6.51111        -0.098607     -0.612870      0.212556
      8.06585      7.25908      6.51111         0.116086      0.042772     -0.337688
      2.22852      3.35569      6.51111         1.862410      2.083226      3.575012
      8.52762     -0.25211     16.90561         0.081136      0.316867     -0.145577
      8.06585     -7.25908     16.90561         0.314205     -0.022597      0.017095
      2.22852     -3.35569     16.90561         1.729554     -1.787169      3.529617
      4.02038      0.25211      6.51111        -1.564794     -2.031919     -3.258941
      4.48215      7.25908      6.51111        -1.719390      0.350542      0.151662
     10.31948      3.35569      6.51111        -0.154383      0.240903      0.193464
      8.12797      2.55263      2.67762        -0.316920      0.424704      0.134270
      6.27337      5.76271      2.67762        -0.054164     -0.497599      0.192223
      4.42066      2.55155      2.67762        -0.836925      4.430930      0.290297
      4.42003     -2.55263     13.07212        -0.723595     -4.048461      0.152017
      6.27463     -5.76271     13.07212         4.049397      1.454078      0.132078
      8.12734     -2.55155     13.07212        -0.288002     -0.381902     -0.020356
      4.42003     -2.55263     18.11138        -0.810234     -4.281256     -0.283765
      6.27463     -5.76271     18.11138         0.002647      0.563711     -0.057334
      8.12734     -2.55155     18.11138        -0.274451     -0.516730     -0.075940
      8.12797      2.55263      7.71688        -0.742874     -0.190468     -0.032179
      6.27337      5.76271      7.71688        -0.852527     -0.451383     -0.487644
      4.42066      2.55155      7.71688        -0.454056      4.373576     -0.174195
      6.27337      0.68353      2.60486         4.672923     -0.691022      0.084555
      8.81936      5.09114      2.60486         0.019128      0.194145      0.035649
      3.72927      5.09222      2.60486         0.069310      0.726724     -0.002335
      6.27463     -0.68353     12.99936         4.563068      0.636037     -0.150775
      3.72864     -5.09114     12.99936        -2.771459      3.215713      0.007087
      8.81873     -5.09222     12.99936         0.481675      0.300056      0.096918
      6.27463     -0.68353     18.18414         4.480383      0.674076     -0.021853
      3.72864     -5.09114     18.18414         0.013759     -0.532614      0.120189
      8.81873     -5.09222     18.18414         0.120015     -0.049295      0.011347
      6.27337      0.68353      7.78964         4.949310     -2.108660      0.870662
      8.81936      5.09114      7.78964         0.041681     -0.186419     -0.198296
      3.72927      5.09222      7.78964         0.286291      1.608894     -0.287244
      6.27400      8.66526      5.19725        -0.851790      0.347981      0.275881
      1.90667      1.10082      5.19725         0.831930     -4.290398     -0.099037
     10.64133      1.10082      5.19725         0.106934     -0.888170      0.077535
      6.27400     -8.66526     15.59175         0.157433     -0.600990      0.060895
     10.64133     -1.10082     15.59175         0.306372      0.403952      0.001388
      1.90667     -1.10082     15.59175         0.869606      4.198270     -0.011096
      2.52591     -1.45834      5.19725        -0.350495     -0.793438     -0.000793
      6.27400     -7.95021      5.19725        -4.628398      0.513917      0.012326
     10.02209     -1.45834      5.19725        -0.055532     -0.821134      0.449121
     10.02209      1.45834     15.59175        -0.108589     -0.169986      0.107033
      6.27400      7.95021     15.59175        -4.493163     -0.514508     -0.003744
      2.52591      1.45834     15.59175        -0.156270      0.564654      0.009108
      6.27463      8.34903     20.41272        -0.074393      0.151487     -0.284942
      2.18021      1.25947     20.41272        -0.408373      0.126767     -0.319870
     10.36716      1.25839     20.41272         0.207685     -0.034013     -0.317626
      6.27337     -8.34903     10.01822        -4.185551     -0.464346     -0.913013
     10.36778     -1.25947     10.01822        -0.322948      0.295242     -0.724436
      2.18084     -1.25839     10.01822         1.724136      3.754105     -0.937215
      6.27337     -8.34903      0.37628         0.014207     -0.169555      0.338292
     10.36778     -1.25947      0.37628         0.191823      0.042521      0.391604
      2.18084     -1.25839      0.37628        -0.457764     -0.222895      0.340363
      6.27463      8.34903     10.77078        -4.680478      0.468039      0.814093
      2.18021      1.25947     10.77078         1.655837     -3.815816      0.957740
     10.36716      1.25839     10.77078        -0.321970     -0.633611      0.131261
      7.39164     -2.76893      8.30495         1.323557     -0.461078     -0.983718
      7.85693      0.96607      2.60694        -1.266275     -0.379593     -0.371877
      7.78290      6.32127      2.60694         0.436281     -0.047648     -0.240480
      3.18217      3.57955      2.60694         0.062783     -0.289615      0.415371
      9.36583     -3.57955     13.00144         0.089567     -0.460281      0.078161
      4.76510      6.32127      2.60694        -0.339096     -0.540751     -0.707723
      9.36583      3.57955      2.60694         0.189914      0.131608     -0.090469
      7.85693     -0.96607     13.00144        -1.181148      0.413881      0.459581
      7.78290     -6.32127     13.00144        -0.130223      0.056413     -0.579150
      3.18217     -3.57955     13.00144        -0.145248     -0.655471     -0.103694
      4.76510     -6.32127     18.18206        -0.390763      0.106481     -0.029677
      9.36583     -3.57955     18.18206         0.087665     -0.217882     -0.021585
      7.85693      0.96607      7.78756         0.189987      1.069418     -0.843687
      7.78290      6.32127      7.78756         1.045576      0.653902      1.182373
      3.18217      3.57955      7.78756        -0.687155     -1.155347      0.105719
      7.85693     -0.96607     18.18206        -1.010554      0.523078      0.057886
      7.78290     -6.32127     18.18206         0.294952     -0.003968      0.049189
      3.18217     -3.57955     18.18206         0.126018      0.039137     -0.437563
      4.76510      6.32127      7.78756         1.390576     -2.219065      2.223834
      9.36583      3.57955      7.78756         0.591007      0.537738      0.153335
      7.79921      8.14908      5.19725         1.174175      0.102699      0.000503
      9.43170      0.03803      5.19725        -0.240791      0.833401     -0.576243
      4.74879     -8.14908     15.59175        -0.645165      0.363631     -0.601362
     10.95691     -2.67977     15.59175         0.984913     -0.482010     -0.000382
      3.11630     -0.03803     15.59175         0.247811      0.072069     -0.067707
      4.74879      8.14908      5.19725         0.947911      1.118962     -2.455505
     10.95691      2.67977      5.19725         1.274193      0.742996     -0.071403
      3.11630      0.03803      5.19725         0.241500      0.143306      0.151019
      7.79921     -8.14908     15.59175         0.364495     -0.059636     -0.043897
      9.43170     -0.03803     15.59175        -0.148697      0.355348      0.015921
      1.55470     -2.69281      0.00000         0.284040     -0.201516     -0.122013
      1.55470      2.69281      0.00000         0.217294      0.272361      0.016276
      9.43861      0.00000      0.00000        -0.509474      0.019121     -0.077072
      4.71930     -8.17407     10.39450         0.493769      0.782717      0.260210
      4.71930      8.17407     10.39450         1.177750      0.117024      1.347337
      3.10939      0.00000     10.39450        -0.027990      0.084205      0.180534
      4.71930      8.17407      0.00000        -0.165548     -0.232875     -0.201642
      4.71930     -8.17407      0.00000        -0.195273      0.282361     -0.039884
      3.10939      0.00000      0.00000         1.237064      0.055875      0.001043
      9.43861      0.00000     10.39450         0.614764      0.013391      1.144697
 -----------------------------------------------------------------------------------
    total drift:                               -0.005551      0.001383     -0.000143


--------------------------------------------------------------------------------------------------------



  FREE ENERGIE OF THE ION-ELECTRON SYSTEM (eV)
  ---------------------------------------------------
  free  energy   TOTEN  =     -1117.80677817 eV

  energy  without entropy=    -1116.56407855  energy(sigma->0) =    -1117.18542836
 


--------------------------------------------------------------------------------------------------------


    POTLOK:  cpu time    0.9439: real time    0.9432


--------------------------------------------------------------------------------------------------------


     LOOP+:  cpu time  917.4245: real time  920.0970
    4ORBIT:  cpu time    0.0000: real time    0.0000

 total amount of memory used by VASP MPI-rank0   157107. kBytes
=======================================================================

   base      :      30000. kBytes
   nonlr-proj:      18026. kBytes
   fftplans  :      24655. kBytes
   grid      :      50981. kBytes
   one-center:        202. kBytes
   wavefun   :      33243. kBytes
 
  
  
 General timing and accounting informations for this job:
 ========================================================
  
                  Total CPU time used (sec):      925.069
                            User time (sec):      922.803
                          System time (sec):        2.267
                         Elapsed time (sec):      927.969
  
                   Maximum memory used (kb):      270280.
                   Average memory used (kb):           0.
  
                          Minor page faults:       154692
                          Major page faults:          155
                 Voluntary context switches:          845
